   This run of MOLCAS is using the pymolcas driver

                             OPE
                             OPE          NMOL  CASOP  ENMOLC A   SO
                 OPE        NMOLC        AS  OP EN  MO LC     AS  OP
                OPENM       OL CA        SO  PE NM  OL CA     SOP EN
                OP EN      MO   LC       AS  OP ENMOL  CASO   PENMOL
                OP  EN     MO   LC       AS  OP EN     MO     LC ASO
               OP   E  NMOL  C  AS       OP  EN MO     LC     AS  OP
               OP  E   NMO   LC AS        OPEN  MO     LCASOP EN   M
               O  PEN   MO  LCA  SO
            OPE   NMO   L   CAS    OP
        OPENMOL  CASOP     ENMOL   CASOPE
     OPENMOLCA   SOPENMOLCASOPEN   MOLCASOPE
    OPENMOLCAS   OP           EN   MOL    CAS
    OPENMOLCAS       OP  ENM        O     LCA
    OPENMOLCAS    OPEN  MOLCASO     P  E  NMO
    OPENMOLCAS     OP               E  N  MOL
    OPENMOLCA   SO           PENM   O  L  CAS    OPEN    MO    LCAS
    OPENMOLCA   SOP           ENM   O  L  CAS   OP  EN  MOLC  AS   O
    OPENMOLCA   SOPE           NM      O  LCA   S      OP  EN MO
    OPENMOLC                AS         O  PEN   M      OL  CA  SOPE
    OPENMO        LCASOPE  NMOL        C  ASO   P      ENMOLC     AS
    OPE     NMO      LCA  SO     P     E   NM   OL  CA SO  PE N   MO
          OPENMOLCA            SOPE   NMO        LCAS  O    P  ENMO
     OPENMOLCASOPENMOLCASOPENMOLCASOPENMOLCA
        OPENMOLCASOPENMOLCASOPENMOLCASOPE
            OPENMOLCASOPENMOLCASOPENM
               OPENMOLCASOPENMOLCA        version: v22.10 ?
                   OPENMOLCASO
                       OPE                tag:

 OpenMolcas is free software; you can redistribute it and/or modify it
 under the terms of the GNU Lesser General Public License version 2.1.
 OpenMolcas is distributed in the hope that it will be useful, but it
 is provided "as is" and without any express or implied warranties.
 For more details see the full text of the license in the file
 LICENSE or in <http://www.gnu.org/licenses/>.

                 Copyright (C) The OpenMolcas Authors
           For the author list and the recommended citation,
                   consult the file CONTRIBUTORS.md

           *************************************************
           * pymolcas version py2.23                       *
           *   build d53e6f8e18683222a6e02cb84ce98eb3      *
           *   (after the EMIL interpreter by V. Veryazov) *
           *************************************************

configuration info
------------------
Host name: cx3-12-10.cx3.hpc.ic.ac.uk (Linux)
C Compiler ID: Intel
C flags: -O2 -xHost -ftz -fp-speculation=safe -fp-model source -std=gnu99 -gcc-sys -qopenmp
Fortran Compiler ID: Intel
Fortran flags: -O2 -xHost -ftz -fp-speculation=safe -fp-model source  -fpp -i8 -heap-arrays -qopenmp
Definitions: _MOLCAS_;_I8_;_LINUX_;_MOLCAS_MPP_;_SCALAPACK_;_GA_
Parallel: ON (GA=ON)


   -------------------------------------------------------------------------------------------
  |
  |           Project: sys1_cas
  |    Submitted from: /rds/general/user/cc522/home/sys1_cas_July_6
  |      Scratch area: /var/tmp/pbs.7890013.pbs/sys1_cas
  |   Save outputs to: /rds/general/user/cc522/home/sys1_cas_July_6
  |            Molcas: /sw-eb/software/OpenMolcas/22.10-intel-2022a
  |
  | Scratch area is empty
  |
  |    MOLCAS_DRIVER = /rds/easybuild/zen2/apps/software/OpenMolcas/22.10-intel-2022a/pymolcas
  |    MOLCAS_NPROCS = 1
  |    MOLCAS_SOURCE = /sw-eb/software/OpenMolcas/22.10-intel-2022a
  | MOLCAS_STRUCTURE = 0
  |
   -------------------------------------------------------------------------------------------

++ ---------   Input file   ---------

&GATEWAY
        coord=sys1_center_2.xyz
        basis=ANO-S-MB
        group=NoSym

&SEWARD

&RASSCF
       fileorb=sys1_casfre.RasOrb
       spin=1
       nactel=10 0 0
       inactive=36
       ras2=10
       CIroot=2 2 1
       OUTOrbitals=Canonical
       RLXRoot=1

&MCKINLEY

-- ----------------------------------

--- Start Module: gateway at Thu Jul  6 23:56:42 2023 ---
 
()()()()()()()()()()()()()()()()()()()()()()()()()()()()()()()()()()()()()()()()()()()()()()()()()()

                                              &GATEWAY

                       only a single process is used, running in SERIAL mode
                        available to each process: 10 GB of memory, 1 thread
                                            pid: 1952974
()()()()()()()()()()()()()()()()()()()()()()()()()()()()()()()()()()()()()()()()()()()()()()()()()()
 
 
++    Symmetry information:
      ---------------------
 
                    Character Table for C1 
 
                             E  
                    a        1  x, y, xy, Rz, z, xz, Ry, yz, Rx, I
--
 
 
++    Basis set information:
      ----------------------
 
 
      Basis set label: C.ANO-S...2S1P.
 
      Electronic valence basis set:
      ------------------
      Associated Effective Charge   6.000000 au
      Associated Actual Charge      6.000000 au
      Nuclear Model: Point charge
 
      Shell  nPrim  nBasis  Cartesian Spherical Contaminant
         s      10       2        X                  
         p       6       1        X                  
 
 
      Basis set label: O.ANO-S...2S1P.
 
      Electronic valence basis set:
      ------------------
      Associated Effective Charge   8.000000 au
      Associated Actual Charge      8.000000 au
      Nuclear Model: Point charge
 
      Shell  nPrim  nBasis  Cartesian Spherical Contaminant
         s      10       2        X                  
         p       6       1        X                  
 
 
      Basis set label: C.ANO-S...2S1P.
 
      Electronic valence basis set:
      ------------------
      Associated Effective Charge   6.000000 au
      Associated Actual Charge      6.000000 au
      Nuclear Model: Point charge
 
      Shell  nPrim  nBasis  Cartesian Spherical Contaminant
         s      10       2        X                  
         p       6       1        X                  
 
 
      Basis set label: H.ANO-S...1S.
 
      Electronic valence basis set:
      ------------------
      Associated Effective Charge   1.000000 au
      Associated Actual Charge      1.000000 au
      Nuclear Model: Point charge
 
      Shell  nPrim  nBasis  Cartesian Spherical Contaminant
         s       7       1        X                  
 
 
      Basis set label: C.ANO-S...2S1P.
 
      Electronic valence basis set:
      ------------------
      Associated Effective Charge   6.000000 au
      Associated Actual Charge      6.000000 au
      Nuclear Model: Point charge
 
      Shell  nPrim  nBasis  Cartesian Spherical Contaminant
         s      10       2        X                  
         p       6       1        X                  
 
 
      Basis set label: H.ANO-S...1S.
 
      Electronic valence basis set:
      ------------------
      Associated Effective Charge   1.000000 au
      Associated Actual Charge      1.000000 au
      Nuclear Model: Point charge
 
      Shell  nPrim  nBasis  Cartesian Spherical Contaminant
         s       7       1        X                  
 
 
      Basis set label: C.ANO-S...2S1P.
 
      Electronic valence basis set:
      ------------------
      Associated Effective Charge   6.000000 au
      Associated Actual Charge      6.000000 au
      Nuclear Model: Point charge
 
      Shell  nPrim  nBasis  Cartesian Spherical Contaminant
         s      10       2        X                  
         p       6       1        X                  
 
 
      Basis set label: O.ANO-S...2S1P.
 
      Electronic valence basis set:
      ------------------
      Associated Effective Charge   8.000000 au
      Associated Actual Charge      8.000000 au
      Nuclear Model: Point charge
 
      Shell  nPrim  nBasis  Cartesian Spherical Contaminant
         s      10       2        X                  
         p       6       1        X                  
 
 
      Basis set label: H.ANO-S...1S.
 
      Electronic valence basis set:
      ------------------
      Associated Effective Charge   1.000000 au
      Associated Actual Charge      1.000000 au
      Nuclear Model: Point charge
 
      Shell  nPrim  nBasis  Cartesian Spherical Contaminant
         s       7       1        X                  
--
 
 
++    Molecular structure info:
      -------------------------
 
                    ************************************************ 
                    **** Cartesian Coordinates / Bohr, Angstrom **** 
                    ************************************************ 
 
     Center  Label                x              y              z                     x              y              z
        1      C1              -1.415144       2.778897      -2.465475             -0.748862       1.470529      -1.304673
        2      C2               1.226187       3.165724      -2.059416              0.648870       1.675229      -1.089796
        3      C3               2.884565       1.333542      -0.525809              1.526446       0.705680      -0.278246
        4      O4              -4.632248      -1.787331       2.299621             -2.451280      -0.945815       1.216907
        5      C5               5.258611       1.996787       0.765897              2.782737       1.056654       0.405295
        6      H6               2.251399       4.852305      -3.062656              1.191389       2.567729      -1.620688
        7      H7               8.260121      -1.007593       2.958319              4.371068      -0.533195       1.565475
        8      H8              -1.391271       0.790153       3.374151             -0.736229       0.418131       1.785524
        9      H9              -2.530655       4.137750      -3.813167             -1.339165       2.189603      -2.017841
       10      C10             -2.965062       0.743067      -1.081825             -1.569043       0.393214      -0.572477
       11      C11             -5.155577      -0.590736      -2.046545             -2.728214      -0.312604      -1.082985
       12      H12             -7.941302      -3.658617       0.380716             -4.202356      -1.936057       0.201466
       13      H13             -6.089293      -0.503657      -4.068989             -3.222315      -0.266524      -2.153216
       14      H14              6.258151       3.984002       0.999457              3.311671       2.108243       0.528890
       15      C15             -6.176296      -2.211881       0.182680             -3.268355      -1.170477       0.096670
       16      C16              6.332155      -0.540439       1.764991              3.350832      -0.285988       0.933993
       17      C17             -2.637156       0.025751       1.667867             -1.395523       0.013627       0.882597
       18      C18              2.539076      -1.446712      -0.361516              1.343621      -0.765567      -0.191306
       19      O19              4.708963      -2.507595       1.112132              2.491876      -1.326962       0.588515
       20      H20              1.259136      -2.923527      -1.446051              0.666306      -1.547064      -0.765217
 
                    ************************************************* 
                    **** InterNuclear Distances / Bohr, Angstrom **** 
                    ************************************************* 
 
     Atom centers         Bohr        Angstrom
    6 H6        2 C2      2.214070        1.171635
    9 H9        1 C1      2.215202        1.172234
   13 H13      11 C11     2.229279        1.179684
   20 H20      18 C18     2.235049        1.182737
   14 H14       5 C5      2.236662        1.183590
   17 C17       8 H8      2.246764        1.188936
   15 C15      12 H12     2.290745        1.212210
   16 C16       7 H7      2.315020        1.225056
   19 O19      16 C16     2.632618        1.393121
   15 C15       4 O4      2.654386        1.404641
    2 C2        1 C1      2.700212        1.428891
   11 C11      10 C10     2.740087        1.449991
   17 C17       4 O4      2.768894        1.465235
    5 C5        3 C3      2.782892        1.472643
   18 C18       3 C3      2.806451        1.485110
   19 O19      18 C18     2.829403        1.497256
   17 C17      10 C10     2.860571        1.513749
    3 C3        2 C2      2.908446        1.539084
   10 C10       1 C1      2.908838        1.539291
   16 C16       5 C5      2.930563        1.550787
   15 C15      11 C11     2.939289        1.555405
    6 H6        1 C1      4.254313        2.251286
   12 H12       4 O4      4.258374        2.253434
    9 H9        2 C2      4.258443        2.253471
   19 O19       7 H7      4.274241        2.261831
    8 H8        4 O4      4.278080        2.263863
   20 H20      19 O19     4.314928        2.283362
   10 C10       9 H9      4.378677        2.317096
    6 H6        3 C3      4.383855        2.319836
   18 C18      16 C16     4.441938        2.350572
   17 C17      15 C15     4.442779        2.351017
   13 H13      10 C10     4.498699        2.380609
   17 C17      11 C11     4.529829        2.397083
   18 C18       5 C5      4.530410        2.397390
   11 C11       4 O4      4.538157        2.401490
   10 C10       4 O4      4.540551        2.402756
   15 C15      10 C10     4.543425        2.404277
   16 C16       3 C3      4.543726        2.404436
   19 O19       5 C5      4.550983        2.408276
   14 H14       3 C3      4.553291        2.409498
   19 O19       3 C3      4.556930        2.411423
   15 C15      13 H13     4.582825        2.425126
   16 C16      14 H14     4.589345        2.428577
   20 H20       3 C3      4.648817        2.460048
   10 C10       8 H8      4.725966        2.500874
    7 H7        5 C5      4.779338        2.529117
   12 H12      11 C11     4.802474        2.541360
    9 H9        6 H6      4.893046        2.589288
    3 C3        1 C1      4.933442        2.610665
   10 C10       2 C2      4.938777        2.613488
   11 C11       1 C1      5.051808        2.673302
    5 C5        2 C2      5.060558        2.677932
   18 C18       2 C2      5.087348        2.692109
   17 C17       1 C1      5.114454        2.706452
   20 H20      10 C10     5.605392        2.966246
    6 H6        5 C5      5.644034        2.986694
--
 
 
            Nuclear Potential Energy            601.03616076 au
 
--- Stop Module: gateway at Thu Jul  6 23:56:45 2023 /rc=_RC_ALL_IS_WELL_ ---
*** files: xmldump
    saved to directory /rds/general/user/cc522/home/sys1_cas_July_6
--- Module gateway spent 2 seconds ---

--- Start Module: seward at Thu Jul  6 23:56:45 2023 ---
 
()()()()()()()()()()()()()()()()()()()()()()()()()()()()()()()()()()()()()()()()()()()()()()()()()()

                                              &SEWARD

                       only a single process is used, running in SERIAL mode
                        available to each process: 10 GB of memory, 1 thread
                                            pid: 1952979
()()()()()()()()()()()()()()()()()()()()()()()()()()()()()()()()()()()()()()()()()()()()()()()()()()
 
               SEWARD will generate:
                  Multipole Moment integrals up to order  2
                  Kinetic Energy integrals
                  Nuclear Attraction integrals (point charge)
                  One-Electron Hamiltonian integrals
                  Velocity integrals
                  Orbital angular momentum around ( 0.0000  0.0004 -0.0003 )
                  Velocity quadrupole around ( 0.0000  0.0004 -0.0003 )
                  Two-Electron Repulsion integrals
 
                   Integrals are discarded if absolute value <: 0.10E-13
                   Integral cutoff threshold is set to       <: 0.10E-15
 
            Nuclear Potential Energy            601.03616076 au
 
 
      Basis set specifications :
      Symmetry species         a  
      Basis functions           68
 
 
      Input file to MOLDEN was generated!
 
--- Stop Module: seward at Thu Jul  6 23:57:41 2023 /rc=_RC_ALL_IS_WELL_ ---
*** files: sys1_cas.GssOrb sys1_cas.guessorb.h5 sys1_cas.guessorb.molden xmldump
    saved to directory /rds/general/user/cc522/home/sys1_cas_July_6
--- Module seward spent 56 seconds ---

*** symbolic link created: INPORB -> sys1_cas.GssOrb
--- Start Module: rasscf at Thu Jul  6 23:57:41 2023 ---
 
()()()()()()()()()()()()()()()()()()()()()()()()()()()()()()()()()()()()()()()()()()()()()()()()()()

                                              &RASSCF

                       only a single process is used, running in SERIAL mode
                        available to each process: 10 GB of memory, 1 thread
                                            pid: 1953515
()()()()()()()()()()()()()()()()()()()()()()()()()()()()()()()()()()()()()()()()()()()()()()()()()()
 
 
      Header of the ONEINT file:
      --------------------------
      
      Integrals generated by Gateway/Seward, Thu Jul  6 23:56:46 2023
 
 
      OrdInt status: non-squared
 
 
      Cartesian coordinates in Angstrom:
      -----------------------------------------------------
      No.  Label        X            Y            Z        
      -----------------------------------------------------
       1   C1        -0.74886200   1.47052900  -1.30467300
       2   C2         0.64887000   1.67522900  -1.08979600
       3   C3         1.52644600   0.70568000  -0.27824600
       4   O4        -2.45128000  -0.94581500   1.21690700
       5   C5         2.78273700   1.05665400   0.40529500
       6   H6         1.19138900   2.56772900  -1.62068800
       7   H7         4.37106800  -0.53319500   1.56547500
       8   H8        -0.73622900   0.41813100   1.78552400
       9   H9        -1.33916500   2.18960300  -2.01784100
      10   C10       -1.56904300   0.39321400  -0.57247700
      11   C11       -2.72821400  -0.31260400  -1.08298500
      12   H12       -4.20235600  -1.93605700   0.20146600
      13   H13       -3.22231500  -0.26652400  -2.15321600
      14   H14        3.31167100   2.10824300   0.52889000
      15   C15       -3.26835500  -1.17047700   0.09667000
      16   C16        3.35083200  -0.28598800   0.93399300
      17   C17       -1.39552300   0.01362700   0.88259700
      18   C18        1.34362100  -0.76556700  -0.19130600
      19   O19        2.49187600  -1.32696200   0.58851500
      20   H20        0.66630600  -1.54706400  -0.76521700
      -----------------------------------------------------
      Nuclear repulsion energy =  601.03616076
 
++    Wave function specifications:
      -----------------------------
 
      Number of closed shell electrons          72
      Number of electrons in active shells      10
      Max number of holes in RAS1 space          0
      Max nr of electrons in RAS3 space          0
      Number of inactive orbitals               36
      Number of active orbitals                 10
      Number of secondary orbitals              22
      Spin quantum number                      0.0
      State symmetry                             1
--
 
++    Orbital specifications:
      -----------------------
 
      Symmetry species                           1
                                                 a
      Frozen orbitals                            0
      Inactive orbitals                         36
      Active orbitals                           10
      RAS1 orbitals                              0
      RAS2 orbitals                             10
      RAS3 orbitals                              0
      Secondary orbitals                        22
      Deleted orbitals                           0
      Number of basis functions                 68
--
 
++    CI expansion specifications:
      ----------------------------
 
      Number of CSFs                         19404
      Number of determinants                 31878
      Number of root(s) required                 2
      Root chosen for geometry opt.              1
      CI roots used                              1     2
      weights                                0.500 0.500
      highest root included in the CI            2
      max. size of the explicit Hamiltonian    200
--
 
++    Optimization specifications:
      ----------------------------
 
      RASSCF algorithm: Conventional
      Maximum number of macro iterations       200
      Maximum number of SX iterations          100
      Threshold for RASSCF energy            0.100E-07
      Threshold for max MO rotation          0.100E+00
      Threshold for max BLB element          0.100E-03
      Level shift parameter                  0.500E+00
      Make Quasi-Newton update
--
 
      The MO-coefficients are taken from the file:
      /rds/general/user/cc522/home/sys1_cas_July_6/sys1_casfre.RasOrb                                                                                                                                                                                                 
      Title: RASSCF canonical orbitals for CASPT2                                          
 
      Total molecular charge    2.00
 
      ************************************************************************************************************************
      *                                                                                                                      *
      *                                            Wave function control section                                             *
      *                                                                                                                      *
      ************************************************************************************************************************
 
 
                                         RASSCF iterations: Energy and convergence statistics
                                         ----------------------------------------------------
 
      Iter CI   SX   CI       RASSCF       Energy    max ROT     max BLB   max BLB  Level Ln srch  Step   QN   Walltime
          iter iter root      energy       change     param      element    value   shift minimum  type update hh:mm:ss
 Nr of preliminary CI iterations:   9
        1   1    8    0  -531.30312561    0.00E+00  -0.13E-02   32  45 1 -0.15E-02*  0.21   0.00    SX    NO    0:00:02
        2   1    7    0  -531.30316799   -0.42E-04* -0.75E-03   32  45 1 -0.79E-03*  0.21   0.00    SX    NO    0:00:00
        3   2    7    0  -531.30319956   -0.32E-04* -0.38E-03   32  45 1 -0.42E-03*  0.21   0.00    SX    NO    0:00:00
        4  10    7    0  -531.30323452   -0.35E-04* -0.76E-03   27  47 1 -0.23E-03*  0.21   0.00    SX    NO    0:00:01
        5   1    6    0  -531.30323592   -0.14E-05* -0.18E-02   13  49 1  0.22E-03*  0.21   2.20    QN   YES    0:00:00
        6  10    7    0  -531.30323657   -0.65E-06* -0.73E-03   38  47 1 -0.24E-03*  0.21   0.62    QN   YES    0:00:01
        7   8    6    0  -531.30323719   -0.62E-06* -0.16E-03   28  55 1  0.14E-03*  0.21   0.79    QN   YES    0:00:01
        8   5    5    0  -531.30323731   -0.12E-06* -0.24E-03   38  47 1 -0.56E-04   0.21   2.50    LS   YES    0:00:00
        9   6    5    0  -531.30323738   -0.62E-07*  0.57E-04   38  47 1 -0.47E-04   0.21   0.83    QN   YES    0:00:01
       10   4    5    0  -531.30323739   -0.15E-07* -0.76E-04   13  49 1  0.45E-04   0.21   0.68    QN   YES    0:00:01
       11   1    5    0  -531.30323740   -0.12E-07* -0.11E-03   30  47 1 -0.17E-04   0.21   2.50    LS   YES    0:00:00
       12   4    5    0  -531.30323740    0.38E-08  -0.46E-04   13  49 1 -0.54E-04   0.21   0.52    QN   YES    0:00:01
      Convergence after 12 iterations
       13   1    5    0  -531.30323741   -0.73E-08  -0.46E-04   30  47 1 -0.15E-04   0.21   0.52    QN   YES    0:00:00
 
      ************************************************************************************************************************
                                                      Wave function printout:
                       occupation of active orbitals, and spin coupling of open shells (u,d: Spin up or down)
      ************************************************************************************************************************
 
      Note: transformation to natural orbitals
      has been made, which may change the order of the CSFs.
 
      printout of CI-coefficients larger than  0.05 for root  1
      energy=    -531.328264
      conf/sym  1111111111     Coeff  Weight
             1  2222200000   0.50351 0.25353
             2  2222ud0000   0.48857 0.23870
             3  2222u0d000  -0.09455 0.00894
             4  2222u00d00  -0.05932 0.00352
             7  222u2d0000  -0.20819 0.04334
            27  2222020000  -0.40193 0.16155
            28  22220ud000  -0.07509 0.00564
            33  22220u00d0  -0.05213 0.00272
            42  222ud20000  -0.05298 0.00281
            45  222udu0d00  -0.06893 0.00475
            63  22u2du00d0  -0.09507 0.00904
            73  2u22dud000  -0.06598 0.00435
            75  2u22du0d00  -0.07144 0.00510
            78  2u22du00d0   0.08193 0.00671
            82  2u22du000d   0.05756 0.00331
            88  u222dud000   0.11640 0.01355
            90  u222du0d00  -0.10455 0.01093
           104  2220202000  -0.05303 0.00281
           108  22202u00d0   0.05024 0.00252
           123  22ud2u00d0   0.05872 0.00345
           128  22ud20u00d   0.05522 0.00305
           275  2u22ud00d0  -0.05101 0.00260
           513  2220ud2000  -0.05049 0.00255
 
      printout of CI-coefficients larger than  0.05 for root  2
      energy=    -531.278211
      conf/sym  1111111111     Coeff  Weight
             1  2222200000  -0.25330 0.06416
             2  2222ud0000   0.05791 0.00335
             7  222u2d0000  -0.55632 0.30949
            10  222u2000d0  -0.07983 0.00637
            12  22u22d0000  -0.39818 0.15855
            15  22u22000d0  -0.05365 0.00288
            22  u2222d0000  -0.12226 0.01495
            30  22220u0d00   0.05044 0.00254
            33  22220u00d0   0.06003 0.00360
            42  222ud20000   0.20950 0.04389
            43  222udud000  -0.08499 0.00722
            45  222udu0d00  -0.08885 0.00790
            48  222udu00d0  -0.15117 0.02285
            57  22u2d20000   0.19216 0.03693
            63  22u2du00d0  -0.08290 0.00687
            67  22u2du000d   0.07645 0.00584
           102  2220220000   0.14240 0.02028
           117  22ud220000   0.06667 0.00445
           133  2u2d2ud000   0.06968 0.00485
           135  2u2d2u0d00   0.06855 0.00470
           138  2u2d2u00d0  -0.05867 0.00344
           148  u22d2ud000   0.05990 0.00359
           172  22022u000d   0.05592 0.00313
           238  02222ud000   0.05337 0.00285
           353  222u0d2000  -0.07313 0.00535
           358  222u0d0200  -0.05252 0.00276
           933  22uuddu00d  -0.05063 0.00256
          1155  22u02dud00  -0.05542 0.00307
          1173  22u02du00d  -0.06332 0.00401
 
      Natural orbitals and occupation numbers for root  1
      sym 1:   1.922582   1.904708   1.886096   1.828044   1.205675   0.802761   0.172077   0.094425   0.102539   0.081093

 
      Natural orbitals and occupation numbers for root  2
      sym 1:   1.907179   1.893126   1.863202   1.165415   1.775035   0.860504   0.175663   0.144426   0.123390   0.092060

 
      ************************************************************************************************************************
      *                                                                                                                      *
      *                                                    Final results                                                     *
      *                                                                                                                      *
      ************************************************************************************************************************
 
 
++    Wave function specifications:
      -----------------------------
 
      Number of closed shell electrons          72
      Number of electrons in active shells      10
      Max number of holes in RAS1 space          0
      Max nr of electrons in RAS3 space          0
      Number of inactive orbitals               36
      Number of active orbitals                 10
      Number of secondary orbitals              22
      Spin quantum number                      0.0
      State symmetry                             1
--
 
++    Orbital specifications:
      -----------------------
 
      Symmetry species                           1
                                                 a
      Frozen orbitals                            0
      Inactive orbitals                         36
      Active orbitals                           10
      RAS1 orbitals                              0
      RAS2 orbitals                             10
      RAS3 orbitals                              0
      Secondary orbitals                        22
      Deleted orbitals                           0
      Number of basis functions                 68
--
 
++    CI expansion specifications:
      ----------------------------
 
      Number of CSFs                         19404
      Number of determinants                 31878
      Number of root(s) required                 2
      CI roots used                              1     2
      weights                                0.500 0.500
      highest root included in the CI            2
      Root passed to geometry opt.               1
--
 
++    Final optimization conditions:
      ------------------------------
 
      Average CI energy                            -531.30323741
      RASSCF energy for state  1                   -531.32826370
      Super-CI energy                                -0.00000002
      RASSCF energy change                            0.00000000
      Max change in MO coefficients               0.426E-04
      Max non-diagonal density matrix element    -0.455E-04
      Maximum BLB matrix element                 -0.154E-04
      (orbital pair  30,  47 in symmetry   1)
      Norm of electronic gradient            0.574E-01
--
 
 
      Final state energy(ies):
      ------------------------
 
::    RASSCF root number  1 Total energy:   -531.32826370
::    RASSCF root number  2 Total energy:   -531.27821112
 
++    Molecular orbitals:
      -------------------
 
      All orbitals are eigenfunctions of the PT2 Fock matrix
 
 
 
 
      Molecular orbitals for symmetry species 1: a  
 
 
      Orbital                 1         2         3         4         5         6         7         8         9        10
      Energy           -21.1573  -21.0757  -11.9661  -11.8891  -11.8714  -11.8603  -11.8347  -11.8234  -11.8174  -11.8070
 
     1 C1     1s         0.0000   -0.0000    0.0000    0.0000    0.0001   -0.0000   -0.0000    0.0051    0.0002   -0.0005
     2 C1     2s         0.0000   -0.0000    0.0000   -0.0000    0.0001   -0.0000   -0.0000    0.0003    0.0000   -0.0001
     3 C1     2px       -0.0000   -0.0000    0.0000    0.0000   -0.0001   -0.0000   -0.0000   -0.0001    0.0000    0.0000
     4 C1     2py       -0.0000   -0.0000   -0.0000    0.0000   -0.0001   -0.0000    0.0000   -0.0001    0.0000    0.0001
     5 C1     2pz        0.0000    0.0000    0.0000   -0.0000   -0.0000    0.0000    0.0000    0.0001    0.0000   -0.0001
     6 C2     1s         0.0000   -0.0000    0.0000   -0.0000    0.0000   -0.0001   -0.0001   -0.0002   -0.0058   -0.0000
     7 C2     2s         0.0000   -0.0000    0.0000   -0.0000    0.0000   -0.0001   -0.0001   -0.0001   -0.0003   -0.0000
     8 C2     2px       -0.0000   -0.0000    0.0000    0.0000   -0.0000   -0.0001   -0.0000    0.0000   -0.0001    0.0000
     9 C2     2py        0.0000    0.0000   -0.0000    0.0000   -0.0000   -0.0000    0.0001    0.0000    0.0001    0.0000
    10 C2     2pz       -0.0000   -0.0000    0.0000   -0.0000   -0.0000   -0.0001   -0.0000    0.0000   -0.0001   -0.0000
    11 C3     1s         0.0000   -0.0000    0.0001   -0.0000    0.0000    0.0080    0.0217   -0.0005   -0.9997    0.0000
    12 C3     2s         0.0000   -0.0000    0.0000   -0.0000    0.0000    0.0001   -0.0000   -0.0000   -0.0015   -0.0000
    13 C3     2px        0.0000   -0.0001    0.0000    0.0000    0.0000   -0.0001   -0.0000    0.0000   -0.0005    0.0000
    14 C3     2py       -0.0000    0.0000   -0.0001    0.0000   -0.0000   -0.0001    0.0002   -0.0000    0.0005    0.0000
    15 C3     2pz       -0.0000   -0.0000    0.0000    0.0000   -0.0000   -0.0003   -0.0001    0.0000   -0.0002    0.0000
    16 O4     1s        -1.0000    0.0000    0.0000   -0.0001    0.0001   -0.0000   -0.0000   -0.0000    0.0000    0.0000
    17 O4     2s        -0.0004    0.0000    0.0000   -0.0002    0.0002   -0.0000   -0.0000   -0.0000    0.0000   -0.0000
    18 O4     2px       -0.0001   -0.0000    0.0000    0.0000    0.0001   -0.0000    0.0000   -0.0000    0.0000   -0.0000
    19 O4     2py       -0.0005   -0.0000    0.0000    0.0000   -0.0001   -0.0000   -0.0000    0.0000    0.0000    0.0000
    20 O4     2pz        0.0013   -0.0000    0.0000   -0.0000    0.0000   -0.0000   -0.0000    0.0000    0.0000    0.0000
    21 C5     1s         0.0000   -0.0000   -0.0020   -0.0000    0.0000   -0.0004    0.9997    0.0000    0.0219    0.0000
    22 C5     2s         0.0000   -0.0000   -0.0002   -0.0000    0.0000   -0.0001    0.0011   -0.0000    0.0001   -0.0000
    23 C5     2px       -0.0000    0.0000   -0.0003    0.0000   -0.0000    0.0001   -0.0003    0.0000   -0.0001    0.0000
    24 C5     2py       -0.0000    0.0000    0.0001    0.0000    0.0000    0.0000   -0.0011    0.0000   -0.0001    0.0000
    25 C5     2pz       -0.0000   -0.0000   -0.0002    0.0000    0.0000   -0.0001   -0.0000    0.0000    0.0001    0.0000
    26 H6     1s         0.0000   -0.0000    0.0000   -0.0000    0.0000   -0.0000   -0.0001   -0.0000    0.0001   -0.0000
    27 H7     1s         0.0000   -0.0002   -0.0007   -0.0000    0.0000   -0.0001   -0.0002   -0.0000    0.0000   -0.0000
    28 H8     1s         0.0001   -0.0000    0.0000   -0.0001   -0.0006   -0.0000   -0.0000   -0.0002    0.0001   -0.0000
    29 H9     1s         0.0000   -0.0000    0.0000   -0.0000    0.0000   -0.0000   -0.0000   -0.0001    0.0000   -0.0001
    30 C10    1s         0.0000    0.0000    0.0000   -0.0002   -0.0064   -0.0000   -0.0000    0.9997   -0.0005   -0.0240
    31 C10    2s         0.0000    0.0000    0.0000   -0.0000   -0.0001   -0.0000   -0.0000    0.0015    0.0000   -0.0002
    32 C10    2px       -0.0000    0.0000    0.0000    0.0000   -0.0002    0.0000   -0.0000   -0.0004    0.0000    0.0001
    33 C10    2py       -0.0000   -0.0000   -0.0000    0.0000   -0.0002    0.0000    0.0000   -0.0004    0.0000    0.0001
    34 C10    2pz        0.0000   -0.0000    0.0000   -0.0001   -0.0001    0.0000    0.0000    0.0004   -0.0000   -0.0001
    35 C11    1s         0.0000   -0.0000    0.0000    0.0032    0.0002   -0.0000   -0.0000    0.0238   -0.0000    0.9997
    36 C11    2s         0.0000   -0.0000    0.0000    0.0002    0.0001   -0.0000   -0.0000   -0.0000    0.0000    0.0013
    37 C11    2px        0.0000   -0.0000    0.0000   -0.0003    0.0000   -0.0000   -0.0000   -0.0000    0.0000    0.0006
    38 C11    2py       -0.0000   -0.0000    0.0000   -0.0002   -0.0001    0.0000   -0.0000    0.0000    0.0000    0.0000
    39 C11    2pz        0.0000   -0.0000    0.0000   -0.0001    0.0001    0.0000   -0.0000   -0.0001    0.0000    0.0011
    40 H12    1s         0.0002   -0.0000    0.0000    0.0007    0.0001   -0.0000   -0.0000   -0.0001    0.0000   -0.0002
    41 H13    1s         0.0000   -0.0000    0.0000   -0.0001    0.0000   -0.0000   -0.0000   -0.0001    0.0000    0.0006
    42 H14    1s         0.0000   -0.0000    0.0001   -0.0000    0.0000   -0.0000    0.0006   -0.0000    0.0002   -0.0000
    43 C15    1s        -0.0000   -0.0000    0.0000    0.9999   -0.0015    0.0000    0.0000    0.0001   -0.0000   -0.0033
    44 C15    2s         0.0002   -0.0000    0.0000    0.0005    0.0002   -0.0000   -0.0000   -0.0001    0.0000   -0.0001
    45 C15    2px        0.0001   -0.0000    0.0000    0.0011    0.0001    0.0000   -0.0000   -0.0001    0.0000   -0.0002
    46 C15    2py        0.0001   -0.0000    0.0000    0.0006    0.0000   -0.0000   -0.0000   -0.0000    0.0000   -0.0001
    47 C15    2pz       -0.0001   -0.0000    0.0000    0.0007    0.0001   -0.0000   -0.0000    0.0000   -0.0000   -0.0000
    48 C16    1s         0.0000   -0.0000   -0.9999    0.0000   -0.0000    0.0002   -0.0021    0.0000   -0.0001    0.0000
    49 C16    2s         0.0000   -0.0003   -0.0001   -0.0000    0.0000   -0.0002   -0.0002   -0.0000    0.0001   -0.0000
    50 C16    2px       -0.0000    0.0002    0.0010    0.0000   -0.0000    0.0001    0.0002    0.0000   -0.0001    0.0000
    51 C16    2py       -0.0000   -0.0001    0.0004    0.0000   -0.0000    0.0001   -0.0001   -0.0000    0.0000   -0.0000
    52 C16    2pz       -0.0000    0.0001    0.0005    0.0000   -0.0000    0.0001    0.0001    0.0000   -0.0000    0.0000
    53 C17    1s        -0.0000    0.0000    0.0000   -0.0015   -0.9999    0.0001    0.0000   -0.0065   -0.0000    0.0004
    54 C17    2s         0.0001    0.0000   -0.0000   -0.0002   -0.0008    0.0000    0.0000   -0.0001    0.0000   -0.0001
    55 C17    2px       -0.0000   -0.0000    0.0000    0.0002    0.0010    0.0000   -0.0000    0.0001    0.0000    0.0001
    56 C17    2py        0.0000    0.0000   -0.0000    0.0001    0.0006    0.0000    0.0000    0.0001   -0.0000    0.0000
    57 C17    2pz       -0.0002   -0.0000   -0.0000    0.0000    0.0003    0.0000    0.0000    0.0001   -0.0000    0.0000
    58 C18    1s        -0.0000    0.0000    0.0002   -0.0000    0.0001    0.9999    0.0002    0.0000    0.0082    0.0000
    59 C18    2s        -0.0000   -0.0001    0.0001    0.0000   -0.0000    0.0008   -0.0001   -0.0000    0.0001   -0.0000
    60 C18    2px       -0.0000   -0.0000    0.0001    0.0000    0.0000    0.0010   -0.0001    0.0000    0.0001    0.0000
    61 C18    2py       -0.0000   -0.0002   -0.0000    0.0000   -0.0000    0.0003   -0.0000   -0.0000    0.0001   -0.0000
    62 C18    2pz        0.0000   -0.0000    0.0001   -0.0000    0.0000    0.0003   -0.0001   -0.0000    0.0001    0.0000
    63 O19    1s         0.0000    1.0000    0.0001   -0.0000   -0.0000   -0.0001    0.0000   -0.0000    0.0000   -0.0000
    64 O19    2s        -0.0000    0.0007    0.0000   -0.0000    0.0000   -0.0001   -0.0000   -0.0000    0.0000   -0.0000
    65 O19    2px       -0.0000    0.0000   -0.0001    0.0000   -0.0000   -0.0000   -0.0000    0.0000    0.0000    0.0000
    66 O19    2py        0.0000    0.0016   -0.0001   -0.0000    0.0000    0.0000    0.0000   -0.0000   -0.0000   -0.0000
    67 O19    2pz       -0.0000   -0.0002   -0.0000    0.0000    0.0000    0.0001    0.0000    0.0000   -0.0000    0.0000
    68 H20    1s         0.0000   -0.0001    0.0001   -0.0000    0.0001    0.0006   -0.0000   -0.0001    0.0002   -0.0001
 
 
      Orbital                11        12        13        14        15        16        17        18        19        20
      Energy           -11.7757  -11.7748   -1.8943   -1.8637   -1.5192   -1.4994   -1.4216   -1.4018   -1.3818   -1.2439
 
     1 C1     1s        -0.7150   -0.6991   -0.0007   -0.0003    0.0216   -0.0097    0.0235   -0.0072   -0.0317    0.0198
     2 C1     2s        -0.0009   -0.0008    0.0028    0.0010   -0.1909    0.1034   -0.2206    0.0738    0.3206   -0.2860
     3 C1     2px       -0.0002   -0.0002    0.0025   -0.0007   -0.0232   -0.0169   -0.0628   -0.0087    0.0946    0.1281
     4 C1     2py        0.0003    0.0003    0.0016   -0.0005    0.0222   -0.0343    0.0040   -0.0213    0.0009    0.0715
     5 C1     2pz       -0.0003   -0.0005   -0.0005   -0.0002   -0.0294    0.0261   -0.0230    0.0115    0.0288   -0.0394
     6 C2     1s        -0.6989    0.7152   -0.0003   -0.0007    0.0227    0.0036    0.0258   -0.0000   -0.0308   -0.0205
     7 C2     2s        -0.0009    0.0009    0.0007    0.0035   -0.2019   -0.0478   -0.2480   -0.0052    0.3111    0.2994
     8 C2     2px        0.0002   -0.0002    0.0006   -0.0024    0.0182   -0.0262    0.0501   -0.0294   -0.0985    0.1255
     9 C2     2py        0.0004   -0.0006    0.0003    0.0008    0.0389    0.0240    0.0353    0.0099   -0.0280   -0.0501
    10 C2     2pz       -0.0001    0.0002    0.0008   -0.0010   -0.0184   -0.0211   -0.0094   -0.0163   -0.0102    0.0507
    11 C3     1s         0.0039   -0.0043   -0.0001   -0.0096    0.0380    0.0315    0.0045    0.0098    0.0081   -0.0101
    12 C3     2s         0.0001   -0.0000    0.0013    0.0321   -0.3271   -0.2738   -0.0782   -0.1215   -0.0888    0.2116
    13 C3     2px       -0.0001    0.0001   -0.0003    0.0018   -0.0481   -0.0557    0.0907    0.0265   -0.0507   -0.1037
    14 C3     2py        0.0000    0.0000    0.0011   -0.0089    0.0256    0.0369    0.0217    0.0741    0.1339    0.1556
    15 C3     2pz       -0.0001   -0.0000    0.0010   -0.0010   -0.0178   -0.0330    0.0633    0.0108   -0.0456   -0.0885
    16 O4     1s         0.0000   -0.0000   -0.0170    0.0001    0.0026   -0.0036   -0.0030    0.0024    0.0015   -0.0057
    17 O4     2s         0.0000   -0.0000    0.7875   -0.0058    0.1548   -0.2119   -0.1194    0.0749    0.0660   -0.1478
    18 O4     2px        0.0000   -0.0000    0.0092    0.0001   -0.0216    0.0232   -0.0774    0.2129   -0.1559    0.1415
    19 O4     2py        0.0000   -0.0000    0.0655   -0.0009   -0.0220    0.0297   -0.0398    0.1368   -0.1144    0.1348
    20 O4     2pz        0.0000    0.0000   -0.1623    0.0011    0.0039   -0.0156   -0.0663    0.1163   -0.0458   -0.0461
    21 C5     1s        -0.0001    0.0001   -0.0001   -0.0105    0.0263    0.0266   -0.0242   -0.0100    0.0019    0.0083
    22 C5     2s         0.0001   -0.0001    0.0001    0.0341   -0.2310   -0.2494    0.2785    0.1360    0.0149   -0.0896
    23 C5     2px       -0.0001    0.0000   -0.0000    0.0048    0.0588    0.0595    0.0036    0.0328    0.0427   -0.0484
    24 C5     2py       -0.0000    0.0000    0.0001   -0.0113    0.0637    0.0708   -0.0935   -0.0517   -0.0143    0.0466
    25 C5     2pz       -0.0000    0.0000    0.0004    0.0030    0.0300    0.0281    0.0223    0.0323    0.0324   -0.0309
    26 H6     1s        -0.0002    0.0004   -0.0002   -0.0003   -0.0152   -0.0029   -0.0285   -0.0007    0.0415    0.0631
    27 H7     1s         0.0000   -0.0000   -0.0000    0.0121   -0.0029   -0.0072    0.0423    0.0382    0.0323    0.0034
    28 H8     1s         0.0001    0.0000    0.0073   -0.0026   -0.0072    0.0215   -0.0139    0.0538   -0.0457    0.0431
    29 H9     1s        -0.0002   -0.0004   -0.0002   -0.0003   -0.0146    0.0080   -0.0255    0.0100    0.0420   -0.0591
    30 C10    1s         0.0036    0.0038   -0.0087    0.0000    0.0316   -0.0385   -0.0037   -0.0070    0.0058    0.0101
    31 C10    2s         0.0001    0.0000    0.0279    0.0012   -0.2789    0.3446    0.0112    0.1089   -0.0634   -0.2228
    32 C10    2px        0.0001    0.0001    0.0009    0.0000    0.0349   -0.0557   -0.0797    0.0646    0.0504   -0.1079
    33 C10    2py        0.0001   -0.0000   -0.0014   -0.0005    0.0237   -0.0544   -0.0690    0.0196    0.0837   -0.1358
    34 C10    2pz       -0.0000    0.0000    0.0074   -0.0011   -0.0114    0.0257   -0.0050    0.0810   -0.1072    0.1104
    35 C11    1s        -0.0002   -0.0002   -0.0089   -0.0000    0.0213   -0.0305   -0.0211    0.0185    0.0037   -0.0099
    36 C11    2s         0.0001    0.0001    0.0248   -0.0002   -0.1710    0.2608    0.2201   -0.2247   -0.0052    0.1150
    37 C11    2px        0.0001    0.0000   -0.0032    0.0001   -0.0492    0.0729    0.0215    0.0188   -0.0355   -0.0376
    38 C11    2py        0.0000   -0.0000   -0.0047   -0.0003   -0.0192    0.0265   -0.0117    0.0437   -0.0281   -0.0444
    39 C11    2pz        0.0000    0.0000    0.0053   -0.0003   -0.0515    0.0794    0.0684   -0.0718    0.0011    0.0420
    40 H12    1s         0.0000    0.0000    0.0092   -0.0002   -0.0012    0.0055    0.0248   -0.0484    0.0250    0.0036
    41 H13    1s         0.0001    0.0000    0.0004   -0.0000   -0.0172    0.0283    0.0288   -0.0309   -0.0001    0.0250
    42 H14    1s         0.0001   -0.0000   -0.0000    0.0017   -0.0237   -0.0273    0.0366    0.0189    0.0028   -0.0205
    43 C15    1s         0.0000    0.0000   -0.0310    0.0002    0.0053   -0.0093   -0.0163    0.0251   -0.0084   -0.0049
    44 C15    2s         0.0000    0.0000    0.1437   -0.0011   -0.0149    0.0465    0.1934   -0.3670    0.1772    0.0392
    45 C15    2px        0.0000    0.0000    0.0672   -0.0005    0.0043    0.0024    0.0395   -0.0712    0.0323    0.0118
    46 C15    2py        0.0000    0.0000    0.0278   -0.0005   -0.0147    0.0291    0.0435   -0.0516    0.0032    0.0546
    47 C15    2pz       -0.0000    0.0000    0.0634   -0.0007    0.0479   -0.0707   -0.0408    0.0058    0.0502   -0.1199
    48 C16    1s         0.0000   -0.0000   -0.0002   -0.0324    0.0074    0.0092   -0.0208   -0.0145   -0.0081    0.0034
    49 C16    2s         0.0000   -0.0000    0.0010    0.1867   -0.0316   -0.0632    0.3290    0.2839    0.2214   -0.0096
    50 C16    2px       -0.0000    0.0000   -0.0003   -0.0890   -0.0048    0.0045   -0.0510   -0.0392   -0.0273    0.0086
    51 C16    2py        0.0000    0.0000   -0.0002   -0.0659   -0.0793   -0.0848    0.0795    0.0214   -0.0364   -0.1426
    52 C16    2pz       -0.0000    0.0000   -0.0000   -0.0405    0.0081    0.0148   -0.0401   -0.0251   -0.0101    0.0257
    53 C17    1s        -0.0001   -0.0001   -0.0262    0.0004    0.0137   -0.0177    0.0034   -0.0203    0.0192   -0.0106
    54 C17    2s         0.0001    0.0000    0.1229    0.0003   -0.1080    0.1353   -0.0998    0.3423   -0.2771    0.1686
    55 C17    2px        0.0000   -0.0000   -0.0595   -0.0031    0.0084    0.0071    0.0302   -0.0576    0.0361   -0.0264
    56 C17    2py        0.0000   -0.0000   -0.0477    0.0011   -0.0180    0.0313    0.0271   -0.0356    0.0042   -0.0274
    57 C17    2pz       -0.0001   -0.0000    0.0013   -0.0010    0.0627   -0.0894   -0.0211   -0.0269    0.0442    0.0259
    58 C18    1s        -0.0001    0.0001    0.0001   -0.0242    0.0170    0.0147    0.0115    0.0167    0.0205    0.0114
    59 C18    2s         0.0001   -0.0000    0.0019    0.1172   -0.1258   -0.1019   -0.2126   -0.2604   -0.2922   -0.2018
    60 C18    2px       -0.0000   -0.0000    0.0040    0.0589   -0.0070    0.0114   -0.0494   -0.0437   -0.0413   -0.0247
    61 C18    2py        0.0001   -0.0000    0.0014   -0.0097   -0.0823   -0.0806   -0.0016   -0.0369   -0.0550    0.0266
    62 C18    2pz       -0.0000   -0.0000   -0.0004    0.0357    0.0126    0.0165   -0.0233   -0.0176   -0.0036   -0.0089
    63 O19    1s         0.0000    0.0000   -0.0002   -0.0190    0.0022    0.0022   -0.0035   -0.0017    0.0003    0.0038
    64 O19    2s         0.0000    0.0000    0.0043    0.7557    0.2004    0.1950   -0.1570   -0.0587    0.0319    0.1201
    65 O19    2px       -0.0000   -0.0000    0.0001    0.0040    0.0258    0.0166    0.1208    0.1377    0.1480    0.1421
    66 O19    2py       -0.0000    0.0000    0.0009    0.1718   -0.0037   -0.0117    0.0544    0.0392    0.0194   -0.0430
    67 O19    2pz        0.0000   -0.0000    0.0001   -0.0216    0.0140    0.0109    0.0621    0.0747    0.0833    0.0920
    68 H20    1s         0.0001   -0.0000   -0.0030    0.0067   -0.0091   -0.0201   -0.0329   -0.0413   -0.0485   -0.0533
 
 
      Orbital                21        22        23        24        25        26        27        28        29        30
      Energy            -1.1980   -1.1897   -1.1674   -1.1240   -1.1072   -1.0704   -1.0099   -1.0042   -0.9998   -0.9953
 
     1 C1     1s         0.0001    0.0015   -0.0064    0.0087   -0.0009   -0.0068    0.0024    0.0025   -0.0051    0.0001
     2 C1     2s         0.0302   -0.0115    0.1314   -0.1882    0.0643    0.2121    0.0286    0.0663   -0.0553   -0.0116
     3 C1     2px       -0.0277    0.0099    0.1456    0.0556    0.0898   -0.1305   -0.0320    0.0547    0.0021   -0.1017
     4 C1     2py       -0.0055    0.0246    0.0999   -0.0121    0.0757    0.0091    0.0337    0.2104   -0.1378   -0.0668
     5 C1     2pz       -0.0030   -0.0008   -0.0448    0.0198   -0.0393   -0.0317   -0.0408   -0.1599    0.1189    0.0187
     6 C2     1s         0.0016   -0.0013   -0.0063   -0.0077   -0.0010    0.0072    0.0033    0.0035   -0.0046    0.0008
     7 C2     2s         0.0073    0.0224    0.1306    0.1615    0.0618   -0.2319    0.0257    0.0208   -0.0442    0.0063
     8 C2     2px        0.0149    0.0141   -0.1511    0.1001   -0.0935   -0.0591    0.0353   -0.0838    0.0148    0.1104
     9 C2     2py        0.0064   -0.0046    0.0648    0.0031    0.0531   -0.0662    0.0405    0.1771   -0.1708   -0.0206
    10 C2     2pz       -0.0050    0.0200   -0.0804    0.0153   -0.0540    0.0412   -0.0258   -0.1441    0.1168    0.0528
    11 C3     1s        -0.0003   -0.0017    0.0150    0.0103   -0.0039    0.0016   -0.0045    0.0035   -0.0022   -0.0025
    12 C3     2s         0.0296    0.0325   -0.2781   -0.0681   -0.0674    0.1560    0.1040   -0.0246   -0.0005    0.0347
    13 C3     2px        0.1460   -0.1162    0.0048   -0.1227    0.0442    0.0809    0.0931    0.1858   -0.1716   -0.0320
    14 C3     2py        0.1737   -0.1179   -0.0050    0.1292   -0.0855   -0.0539   -0.0208   -0.1072    0.0308    0.1282
    15 C3     2pz        0.0735   -0.0492    0.0045   -0.1018    0.0518    0.0620    0.0477    0.1263   -0.1290    0.0088
    16 O4     1s         0.0075    0.0100   -0.0039   -0.0001   -0.0081   -0.0071   -0.0006   -0.0017   -0.0031   -0.0026
    17 O4     2s         0.1899    0.2501   -0.1047    0.0361   -0.1136   -0.1234   -0.0117   -0.0213   -0.0464   -0.0471
    18 O4     2px        0.0860    0.1549    0.2018   -0.1136    0.0676    0.1858   -0.0182   -0.2812   -0.1309   -0.0318
    19 O4     2py        0.0008    0.0227    0.1679   -0.0562    0.1744    0.2490   -0.0163   -0.1781    0.0155    0.0473
    20 O4     2pz        0.1775    0.2683   -0.0090   -0.1098   -0.3594   -0.2935   -0.0042   -0.1192   -0.3308   -0.1894
    21 C5     1s        -0.0118    0.0091   -0.0048    0.0049   -0.0052    0.0053   -0.0021   -0.0004    0.0013   -0.0020
    22 C5     2s         0.2896   -0.2294    0.1574    0.1338   -0.1191    0.1092   -0.1635    0.0465    0.0076   -0.0913
    23 C5     2px       -0.0974    0.0426    0.1414    0.1462   -0.0401   -0.0830   -0.1497   -0.1127    0.1623   -0.0645
    24 C5     2py        0.0766   -0.0550   -0.0230    0.0815   -0.1252    0.1610   -0.1902    0.0449    0.0291   -0.1240
    25 C5     2pz       -0.0608    0.0308    0.0854    0.0744    0.0025   -0.0787   -0.0597   -0.0727    0.0730    0.0018
    26 H6     1s         0.0038    0.0084    0.0384    0.0600    0.0263   -0.1091    0.0339    0.0678   -0.0902    0.0112
    27 H7     1s        -0.1095    0.0769    0.0059    0.0904   -0.0757    0.0927    0.2176    0.0111   -0.0419    0.0430
    28 H8     1s        -0.0512   -0.0623    0.0584   -0.1001   -0.1449   -0.0655    0.0326    0.2116    0.1129    0.0693
    29 H9     1s         0.0106   -0.0049    0.0382   -0.0688    0.0267    0.1002    0.0373    0.1001   -0.0854   -0.0023
    30 C10    1s        -0.0007    0.0024    0.0133   -0.0094   -0.0063   -0.0012    0.0010    0.0055    0.0014    0.0012
    31 C10    2s         0.0493   -0.0258   -0.2756    0.1200   -0.0628   -0.1177    0.0154   -0.1028   -0.0804   -0.0101
    32 C10    2px       -0.0876   -0.1566   -0.0092   -0.1106   -0.0754    0.0966   -0.0286   -0.1664    0.1320    0.0727
    33 C10    2py       -0.0204   -0.0388   -0.0074   -0.1188   -0.0836    0.1293   -0.0197   -0.1395    0.1422    0.0860
    34 C10    2pz       -0.1435   -0.1942    0.0028    0.0633    0.0450   -0.0984   -0.0072    0.0381   -0.0919   -0.0866
    35 C11    1s        -0.0082   -0.0138   -0.0046   -0.0039   -0.0070   -0.0017   -0.0001   -0.0030    0.0017    0.0013
    36 C11    2s         0.1920    0.3274    0.1449   -0.0975   -0.1325   -0.0649   -0.0114    0.1014    0.1375    0.0307
    37 C11    2px        0.0675    0.0598   -0.1175    0.1383    0.0693   -0.0812    0.0364    0.0615   -0.1458   -0.0477
    38 C11    2py        0.0648    0.0701   -0.0975    0.0977    0.0105   -0.0833    0.0163    0.0686   -0.0271   -0.0021
    39 C11    2pz       -0.0398   -0.0574    0.0185    0.0369    0.1056    0.0503    0.0125   -0.0601   -0.2167   -0.0967
    40 H12    1s        -0.0561   -0.0767    0.0230   -0.0812   -0.1069   -0.0341    0.0105   -0.1422   -0.1678   -0.0442
    41 H13    1s         0.0512    0.0893    0.0446   -0.0480   -0.0715   -0.0299   -0.0128    0.0560    0.1575    0.0558
    42 H14    1s         0.0805   -0.0661    0.0545    0.0755   -0.0713    0.0715   -0.1652    0.0130    0.0454   -0.0995
    43 C15    1s         0.0086    0.0108   -0.0024   -0.0021   -0.0079   -0.0043    0.0002   -0.0020   -0.0003    0.0004
    44 C15    2s        -0.2144   -0.2751    0.1129   -0.2122   -0.1799    0.0217    0.0083   -0.1627   -0.1284   -0.0205
    45 C15    2px        0.0070    0.0062   -0.0070    0.0937    0.1875    0.1042   -0.0061    0.1984    0.2609    0.0863
    46 C15    2py        0.0177    0.0379    0.0580    0.0307    0.1369    0.1101   -0.0170    0.0936    0.1649    0.0482
    47 C15    2pz       -0.0271   -0.0797   -0.1726    0.1258    0.0240   -0.0836    0.0192    0.1621    0.0993    0.0556
    48 C16    1s         0.0074   -0.0047    0.0001    0.0068   -0.0070    0.0064    0.0011   -0.0005    0.0004   -0.0002
    49 C16    2s        -0.3615    0.2406    0.0481    0.1549   -0.0693    0.0084    0.1168   -0.0419   -0.0013    0.0613
    50 C16    2px       -0.0771    0.0515    0.0187    0.1818   -0.1804    0.2237    0.3563    0.0354   -0.1083    0.1731
    51 C16    2py        0.0336   -0.0487    0.2234    0.1110    0.0322   -0.1616    0.1456   -0.1340    0.1049    0.0448
    52 C16    2pz       -0.0523    0.0381   -0.0226    0.0902   -0.1075    0.1501    0.2679    0.0340    0.0271   -0.1925
    53 C17    1s         0.0082    0.0093   -0.0035   -0.0023   -0.0067   -0.0028    0.0012    0.0009    0.0007    0.0015
    54 C17    2s        -0.1662   -0.2240    0.1315   -0.1676   -0.1777   -0.0904    0.0409    0.1621    0.0538    0.0450
    55 C17    2px       -0.0501   -0.0730   -0.0243   -0.0617   -0.1870   -0.1407    0.0266    0.2481    0.1128    0.0538
    56 C17    2py       -0.0704   -0.1042   -0.0580    0.0031   -0.1113   -0.1361    0.0180    0.1762    0.0628    0.0077
    57 C17    2pz        0.0674    0.1433    0.1435   -0.1896   -0.1673    0.0432    0.0182    0.1252    0.1405    0.0929
    58 C18    1s         0.0109   -0.0062   -0.0024    0.0059   -0.0059    0.0044    0.0008   -0.0002   -0.0009    0.0009
    59 C18    2s        -0.2425    0.1632    0.1725    0.1795   -0.0746    0.0719   -0.1202    0.0761   -0.0665   -0.0610
    60 C18    2px        0.0838   -0.0586    0.0250   -0.0766    0.1058   -0.1225    0.2615   -0.1085    0.0583    0.1168
    61 C18    2py       -0.1055    0.1024   -0.1747   -0.2164    0.1061    0.0382    0.0941    0.0158    0.0390   -0.0874
    62 C18    2pz        0.0830   -0.0525    0.0201   -0.0444    0.0714   -0.0946    0.2195   -0.0853    0.0804   -0.0112
    63 O19    1s         0.0088   -0.0061   -0.0002    0.0060   -0.0078    0.0082    0.0056   -0.0004    0.0014   -0.0009
    64 O19    2s         0.2553   -0.1739   -0.0417    0.0669   -0.1235    0.1387    0.0753   -0.0035    0.0230   -0.0181
    65 O19    2px       -0.1031    0.0888   -0.2248   -0.1173   -0.0268    0.1468   -0.4192    0.1461   -0.2099    0.2503
    66 O19    2py       -0.1506    0.1135   -0.0161   -0.1916    0.2399   -0.3042   -0.2038   -0.0696    0.0797   -0.0657
    67 O19    2pz       -0.0366    0.0328   -0.1388   -0.0571   -0.0444    0.1223    0.0416    0.0766    0.2003   -0.7081
    68 H20    1s        -0.0772    0.0483    0.0744    0.1144   -0.0808    0.0585   -0.2000    0.0801   -0.0763   -0.0355
 
 
      Orbital                31        32        33        34        35        36        37        38        39        40
      Energy            -0.9855   -0.9693   -0.9573   -0.9445   -0.9266   -0.9003   -0.9871   -0.8308   -0.7837   -0.6878
 
     1 C1     1s         0.0066    0.0029   -0.0020   -0.0000    0.0080    0.0052   -0.0003   -0.0011    0.0016   -0.0015
     2 C1     2s         0.0189    0.0253    0.0233   -0.0418    0.0497    0.1422   -0.0045   -0.0401    0.0169   -0.0040
     3 C1     2px       -0.3294   -0.1300    0.0391    0.0573   -0.3416   -0.0426    0.0106   -0.0609    0.0294    0.1026
     4 C1     2py       -0.0165    0.0612   -0.0395    0.0684    0.1100    0.3182    0.0037    0.1247   -0.1990   -0.2776
     5 C1     2pz       -0.0784   -0.0843    0.0396   -0.0320   -0.1689   -0.2717    0.0140    0.1406   -0.3051   -0.3020
     6 C2     1s         0.0061    0.0024   -0.0027    0.0000    0.0073   -0.0060   -0.0001    0.0020   -0.0004    0.0003
     7 C2     2s         0.0626    0.0059   -0.0383    0.0345    0.0109   -0.1429    0.0073    0.0291   -0.0387    0.0042
     8 C2     2px        0.3508    0.1017   -0.0648   -0.0361    0.3212   -0.0618   -0.0047   -0.0258    0.0831    0.0696
     9 C2     2py        0.1171   -0.0021   -0.1522    0.0000    0.1283   -0.3650   -0.0050    0.1769   -0.1090   -0.2622
    10 C2     2pz       -0.0019    0.0267    0.0993   -0.0005   -0.0312    0.2418    0.0035    0.2021   -0.1949   -0.3745
    11 C3     1s         0.0007    0.0024   -0.0020    0.0004    0.0010    0.0006    0.0006    0.0012   -0.0010   -0.0002
    12 C3     2s        -0.0067    0.0138    0.0390    0.0275    0.0463    0.1317    0.0067    0.0225   -0.0059   -0.0009
    13 C3     2px        0.0191   -0.2207   -0.0436   -0.1105   -0.1894   -0.1470    0.0004   -0.3044   -0.1002   -0.0490
    14 C3     2py        0.2469   -0.1253    0.0798   -0.1697   -0.1241    0.2665   -0.0089    0.0684    0.0458    0.0134
    15 C3     2pz       -0.0571   -0.1096   -0.0347   -0.0326   -0.1104   -0.1198   -0.0077    0.4556    0.1678    0.0938
    16 O4     1s        -0.0056   -0.0042    0.0002   -0.0075    0.0061   -0.0005    0.0001    0.0003    0.0001   -0.0002
    17 O4     2s        -0.1045   -0.0693    0.0119   -0.1259    0.0968   -0.0035    0.0037    0.0079   -0.0012   -0.0046
    18 O4     2px        0.0795    0.0224   -0.0254    0.0665   -0.0476   -0.0546   -0.4430    0.0344   -0.2126    0.1735
    19 O4     2py        0.1402    0.0319   -0.0688    0.1520   -0.1132   -0.0677    0.5603   -0.0108    0.2572   -0.2445
    20 O4     2pz       -0.2288   -0.0472    0.1425   -0.2832    0.1969    0.0525    0.2005   -0.0156    0.0983   -0.0730
    21 C5     1s        -0.0026    0.0054   -0.0018    0.0004    0.0005    0.0015    0.0004    0.0003    0.0005    0.0022
    22 C5     2s        -0.0877    0.0414   -0.0206    0.0246   -0.0220   -0.0298    0.0024   -0.0115    0.0123    0.0330
    23 C5     2px       -0.0890    0.2572   -0.0154    0.1333    0.2009   -0.0035    0.0011   -0.1577   -0.1006   -0.1648
    24 C5     2py       -0.1174    0.3518   -0.2767   -0.1928   -0.0992   -0.0179   -0.0016    0.0469    0.0278    0.0429
    25 C5     2pz       -0.0232    0.0870    0.0300    0.1048    0.1379   -0.0062   -0.0013    0.3181    0.1463    0.2276
    26 H6     1s         0.1332    0.0179   -0.1066    0.0069    0.1396   -0.3046   -0.0020    0.0505    0.0261    0.0129
    27 H7     1s        -0.0159    0.0225   -0.0844   -0.1218   -0.1018    0.0096   -0.0006   -0.0063    0.0047    0.0059
    28 H8     1s         0.0580    0.1173    0.1237    0.0194   -0.0734   -0.0258   -0.0122   -0.0400   -0.0049   -0.0018
    29 H9     1s         0.0930    0.0803   -0.0223   -0.0029    0.1984    0.2832   -0.0123   -0.0024    0.0572   -0.0418
    30 C10    1s         0.0007   -0.0016   -0.0042    0.0010    0.0010   -0.0004   -0.0001   -0.0014    0.0012   -0.0001
    31 C10    2s         0.0415    0.0094   -0.0177   -0.0013   -0.0091   -0.1375   -0.0009   -0.0164    0.0097   -0.0032
    32 C10    2px        0.0111   -0.1674   -0.1126   -0.1695    0.1540   -0.1655   -0.0745   -0.0655    0.3100   -0.1716
    33 C10    2py        0.1102   -0.0451   -0.0197   -0.0894    0.0769   -0.1919    0.0868    0.0660   -0.3615    0.2212
    34 C10    2pz       -0.1960   -0.1819   -0.1737   -0.0930    0.1891    0.2085    0.0416    0.0040   -0.1468    0.0904
    35 C11    1s         0.0004   -0.0044   -0.0065    0.0007    0.0007   -0.0019   -0.0003   -0.0002   -0.0011   -0.0020
    36 C11    2s        -0.0815   -0.0991   -0.0828   -0.0055    0.0021    0.0276   -0.0038    0.0091   -0.0270   -0.0291
    37 C11    2px        0.0532    0.2039    0.1600    0.1507   -0.1954    0.0188   -0.0588   -0.0136    0.1322   -0.2913
    38 C11    2py        0.0442    0.0696   -0.0404    0.2096   -0.1718    0.0435    0.0756    0.0455   -0.2158    0.3322
    39 C11    2pz       -0.0178    0.2130    0.4293   -0.2309    0.0340   -0.0804    0.0273    0.0122   -0.0758    0.1360
    40 H12    1s         0.0654    0.0485   -0.0758    0.1749   -0.1100    0.0249    0.0003    0.0050   -0.0055   -0.0060
    41 H13    1s        -0.0385   -0.1654   -0.2510    0.0733    0.0246    0.0572   -0.0001   -0.0024   -0.0051   -0.0035
    42 H14    1s        -0.1034    0.2229   -0.1344   -0.0410   -0.0030   -0.0316    0.0016   -0.0001   -0.0016    0.0046
    43 C15    1s         0.0008   -0.0009   -0.0025    0.0015   -0.0010   -0.0024   -0.0008   -0.0002    0.0002   -0.0002
    44 C15    2s         0.0822    0.0675    0.0389    0.0260   -0.0311   -0.0612   -0.0010   -0.0057    0.0086    0.0049
    45 C15    2px       -0.0406   -0.0218    0.1313   -0.2109    0.1125   -0.0623   -0.1641   -0.0107   -0.0439   -0.0834
    46 C15    2py       -0.0586   -0.0303    0.1523   -0.2510    0.1363   -0.0748    0.2082   -0.0007    0.0711    0.1154
    47 C15    2pz        0.0563    0.0132   -0.1395    0.2271   -0.1371    0.0674    0.0795   -0.0013    0.0174    0.0330
    48 C16    1s        -0.0000    0.0010    0.0001   -0.0005    0.0001    0.0031    0.0002    0.0010    0.0002    0.0002
    49 C16    2s         0.0733   -0.0266    0.0131   -0.0440   -0.0159    0.0635    0.0027    0.0123   -0.0015   -0.0042
    50 C16    2px       -0.1482    0.0613   -0.1094   -0.1011   -0.0924   -0.0320   -0.0059   -0.0187    0.0005   -0.0436
    51 C16    2py        0.0059   -0.0900    0.1923    0.2160    0.1836    0.0298   -0.0017    0.0052    0.0029    0.0004
    52 C16    2pz        0.0224    0.0070   -0.0902   -0.1079   -0.0927   -0.0188    0.0022    0.0128    0.0106    0.0817
    53 C17    1s         0.0031    0.0007   -0.0024    0.0019   -0.0007   -0.0004   -0.0005   -0.0024    0.0024    0.0019
    54 C17    2s         0.0306    0.0171   -0.0650    0.0604   -0.0022    0.0765   -0.0277   -0.0595    0.0314    0.0345
    55 C17    2px       -0.0078    0.0738    0.1358   -0.0701    0.0060   -0.0144   -0.1727   -0.0193    0.1054   -0.0156
    56 C17    2py       -0.0509   -0.0053    0.0441   -0.0703    0.0448    0.0275    0.1919   -0.0239   -0.1146    0.0282
    57 C17    2pz        0.1573    0.2218    0.2597    0.0593   -0.1891   -0.1498    0.0510   -0.0037   -0.0614   -0.0240
    58 C18    1s         0.0031    0.0007   -0.0008   -0.0016   -0.0004    0.0019    0.0005    0.0020   -0.0016   -0.0017
    59 C18    2s         0.0689    0.0195   -0.0718   -0.0493   -0.0265   -0.0540    0.0198    0.0731   -0.0307   -0.0174
    60 C18    2px       -0.1260    0.1875   -0.1063   -0.0782   -0.0234    0.0121   -0.0113   -0.1722   -0.0782   -0.0264
    61 C18    2py       -0.2534    0.2337   -0.0880    0.1591    0.1741   -0.1670   -0.0096    0.0286    0.0077   -0.0299
    62 C18    2pz       -0.0342    0.1088   -0.0707   -0.0617   -0.0152    0.0176   -0.0135    0.2051    0.1511    0.0276
    63 O19    1s        -0.0068   -0.0018    0.0064    0.0118    0.0089   -0.0018   -0.0001   -0.0003    0.0002   -0.0002
    64 O19    2s        -0.1219   -0.0349    0.1065    0.1944    0.1390   -0.0340   -0.0021   -0.0087    0.0052   -0.0012
    65 O19    2px       -0.1378   -0.0245    0.0367    0.1251    0.0709   -0.0941   -0.0004    0.0963    0.0299    0.0467
    66 O19    2py        0.2411    0.2014   -0.2502   -0.4254   -0.2662    0.1528   -0.0015   -0.0291   -0.0010   -0.0042
    67 O19    2pz        0.1800   -0.1455    0.0738    0.1040    0.0477   -0.0601    0.0102   -0.1353   -0.0866   -0.0932
    68 H20    1s         0.1585   -0.1587    0.0449   -0.0403   -0.0699    0.0256    0.0244    0.0195   -0.0346    0.0101
 
 
      Orbital                41        42        43        44        45        46        47        48        49        50
      Energy            -0.6542   -0.5872   -0.3403   -0.2916   -0.2177   -0.1478   -0.2888   -0.1237   -0.1150   -0.0731
 
     1 C1     1s         0.0002   -0.0010    0.0019    0.0002    0.0027    0.0018   -0.0009   -0.0196    0.0192   -0.0087
     2 C1     2s         0.0005   -0.0076    0.0017   -0.0045    0.0248    0.0369   -0.0052   -0.1701    0.2074   -0.1166
     3 C1     2px       -0.0187    0.0418    0.0520    0.0696    0.0057    0.1582    0.0048    0.1012   -0.1073   -0.1141
     4 C1     2py        0.0596   -0.1089   -0.2340   -0.2619    0.0476   -0.4472    0.0033    0.0837   -0.0933   -0.0484
     5 C1     2pz        0.0619   -0.1238   -0.3307   -0.3166    0.0224   -0.5019    0.0025   -0.0745    0.1101    0.0142
     6 C2     1s        -0.0008    0.0004    0.0009    0.0016   -0.0027    0.0022   -0.0018   -0.0274   -0.0055    0.0403
     7 C2     2s        -0.0079    0.0062   -0.0076    0.0127   -0.0233    0.0451   -0.0188   -0.2579   -0.0798    0.3854
     8 C2     2px       -0.0229    0.0254   -0.0451   -0.0511   -0.0351   -0.1481   -0.0125   -0.1536   -0.0318    0.0976
     9 C2     2py        0.0836   -0.0927    0.2646    0.1883    0.1394    0.3572   -0.0053    0.1410    0.0504   -0.1466
    10 C2     2pz        0.1115   -0.1368    0.3372    0.2313    0.2431    0.5613    0.0011   -0.0817   -0.0121    0.1567
    11 C3     1s        -0.0009    0.0006    0.0013    0.0006   -0.0023   -0.0017    0.0012    0.0031    0.0020   -0.0120
    12 C3     2s        -0.0193   -0.0031    0.0180    0.0070   -0.0332   -0.0350    0.0100    0.0906    0.0563   -0.1699
    13 C3     2px        0.0194   -0.0879   -0.1732   -0.1772    0.3481    0.2836   -0.0443   -0.0829   -0.0444    0.0148
    14 C3     2py        0.0160    0.0427    0.0207    0.0292   -0.0759   -0.0856    0.0154    0.0378   -0.0212   -0.2530
    15 C3     2pz       -0.0179    0.1510    0.2623    0.2838   -0.5440   -0.4344    0.0602   -0.1239    0.0023    0.0524
    16 O4     1s        -0.0006    0.0005    0.0002    0.0003    0.0007   -0.0006    0.0010    0.0377   -0.0731    0.0069
    17 O4     2s        -0.0077    0.0078    0.0034    0.0009    0.0070   -0.0095    0.0104    0.3634   -0.7068    0.0658
    18 O4     2px        0.0196    0.0182    0.2587   -0.2496   -0.0022   -0.0233    0.0089    0.1177   -0.1786   -0.0029
    19 O4     2py       -0.0241   -0.0122   -0.3228    0.2919    0.0112   -0.0077    0.0077    0.1514   -0.2702    0.0113
    20 O4     2pz       -0.0155   -0.0028   -0.1038    0.1155    0.0022    0.0162   -0.0042   -0.1621    0.3334   -0.0318
    21 C5     1s        -0.0008    0.0016   -0.0014   -0.0012   -0.0010   -0.0015   -0.0002    0.0070    0.0046    0.0567
    22 C5     2s        -0.0066    0.0201   -0.0277   -0.0202   -0.0043   -0.0175   -0.0040    0.0891    0.0638    0.5970
    23 C5     2px        0.1541    0.1986    0.1496    0.1349   -0.1669   -0.0878    0.2957   -0.1074   -0.0175    0.2989
    24 C5     2py       -0.0464   -0.0648   -0.0373   -0.0332    0.0410    0.0214   -0.0824    0.0884    0.0131   -0.5040
    25 C5     2pz       -0.2738   -0.3937   -0.2058   -0.1999    0.3002    0.1987   -0.5273   -0.0710   -0.0222    0.2346
    26 H6     1s        -0.0023    0.0108    0.0247    0.0238   -0.0418   -0.0406    0.0131    0.0481    0.0708    0.0018
    27 H7     1s        -0.0006   -0.0017   -0.0024   -0.0004   -0.0032   -0.0070   -0.0085    0.3086    0.2065    0.7457
    28 H8     1s        -0.0156   -0.0204    0.0182   -0.0032    0.0166   -0.0181   -0.0048    0.0713   -0.2318    0.0415
    29 H9     1s         0.0170   -0.0203    0.0396   -0.0077    0.0489   -0.0450    0.0048    0.0012   -0.0795    0.1131
    30 C10    1s         0.0001   -0.0013    0.0010    0.0004    0.0008   -0.0014   -0.0010    0.0038   -0.0089   -0.0057
    31 C10    2s        -0.0068   -0.0152    0.0119   -0.0018    0.0116   -0.0307   -0.0092    0.0644   -0.1484   -0.0385
    32 C10    2px        0.0970   -0.1189    0.2467   -0.0324    0.3708   -0.3587   -0.0008    0.0177   -0.0639   -0.0190
    33 C10    2py       -0.1228    0.1428   -0.2954    0.0417   -0.4540    0.4267    0.0004    0.1104   -0.0560   -0.0313
    34 C10    2pz       -0.0698    0.0539   -0.0967    0.0216   -0.1766    0.1877   -0.0017   -0.0130   -0.0126   -0.0040
    35 C11    1s         0.0005   -0.0013   -0.0016   -0.0014    0.0003   -0.0018    0.0003    0.0036   -0.0070   -0.0034
    36 C11    2s         0.0095   -0.0136   -0.0299   -0.0202   -0.0022   -0.0235    0.0043    0.0402   -0.0919   -0.0223
    37 C11    2px       -0.2034    0.0296   -0.0432   -0.3184   -0.3498    0.2026    0.0061    0.0498   -0.0436   -0.0054
    38 C11    2py        0.2899   -0.0563    0.0054    0.3774    0.4529   -0.3086    0.0042    0.0445   -0.0413   -0.0020
    39 C11    2pz        0.1134   -0.0214    0.0071    0.1553    0.1726   -0.1084    0.0006   -0.0377    0.0390    0.0006
    40 H12    1s         0.0013   -0.0001   -0.0033   -0.0037    0.0018   -0.0067    0.0050    0.1183   -0.2633    0.0358
    41 H13    1s        -0.0034   -0.0020   -0.0020   -0.0007    0.0037   -0.0049   -0.0017   -0.0908    0.1596   -0.0079
    42 H14    1s        -0.0053   -0.0015    0.0001    0.0006   -0.0066   -0.0042    0.0075   -0.1594   -0.0790   -0.0331
    43 C15    1s         0.0006   -0.0007    0.0003   -0.0008   -0.0003   -0.0005   -0.0001   -0.0059    0.0236   -0.0048
    44 C15    2s         0.0118   -0.0086    0.0059   -0.0040   -0.0034    0.0010   -0.0030   -0.1089    0.3261   -0.0535
    45 C15    2px       -0.2925    0.1453   -0.2205    0.4010    0.1929   -0.0878   -0.0011   -0.0687    0.1558   -0.0182
    46 C15    2py        0.3857   -0.1962    0.2884   -0.5076   -0.2500    0.1226   -0.0008    0.0230   -0.0259    0.0089
    47 C15    2pz        0.1451   -0.0799    0.0971   -0.1979   -0.0984    0.0430   -0.0034   -0.2013    0.3798   -0.0518
    48 C16    1s         0.0001    0.0014   -0.0001   -0.0005   -0.0000   -0.0006    0.0016   -0.0183   -0.0193   -0.1222
    49 C16    2s         0.0061    0.0198    0.0019   -0.0037    0.0024    0.0002    0.0159   -0.2708   -0.2333   -1.1332
    50 C16    2px        0.0907    0.1676    0.0053   -0.0024   -0.0090   -0.0157   -0.4813    0.0850    0.0439   -0.1532
    51 C16    2py       -0.0204   -0.0574    0.0092    0.0110   -0.0013    0.0014    0.1161    0.3748    0.1912   -0.3724
    52 C16    2pz       -0.1625   -0.3180   -0.0123    0.0107    0.0070    0.0146    0.8101   -0.0057    0.0144   -0.0283
    53 C17    1s         0.0010   -0.0021   -0.0001    0.0029   -0.0016    0.0033   -0.0016   -0.0210    0.0434   -0.0032
    54 C17    2s         0.0132   -0.0391   -0.0027    0.0452   -0.0273    0.0591   -0.0229   -0.2721    0.5337   -0.0360
    55 C17    2px        0.3708   -0.2220   -0.3774    0.1908   -0.2239    0.1502   -0.0077    0.2418   -0.4429    0.0199
    56 C17    2py       -0.4326    0.2389    0.4469   -0.2188    0.2670   -0.1611    0.0192    0.2258   -0.3836    0.0347
    57 C17    2pz       -0.1169    0.0505    0.1067   -0.0918    0.0812   -0.0891   -0.0018   -0.1082    0.2449   -0.0488
    58 C18    1s         0.0004    0.0038   -0.0003   -0.0026    0.0048    0.0046    0.0016   -0.0362   -0.0227   -0.0275
    59 C18    2s         0.0017    0.0712    0.0016   -0.0368    0.0644    0.0742    0.0205   -0.4764   -0.2776   -0.2088
    60 C18    2px       -0.1316   -0.4073    0.1611    0.2184   -0.2590   -0.1583   -0.1195   -0.4910   -0.2557    0.1384
    61 C18    2py        0.0211    0.0117    0.0050   -0.0054    0.0473    0.0503   -0.0018    0.3089    0.1820   -0.1058
    62 C18    2pz        0.1959    0.5410   -0.2355   -0.3005    0.3690    0.2125    0.1702   -0.3016   -0.1291    0.1373
    63 O19    1s        -0.0001   -0.0012    0.0007    0.0006   -0.0004   -0.0006   -0.0011    0.0674    0.0369   -0.0094
    64 O19    2s        -0.0026   -0.0190    0.0077    0.0080   -0.0064   -0.0110   -0.0123    0.6664    0.3677   -0.0350
    65 O19    2px       -0.0308   -0.0015   -0.0632   -0.0648    0.0826    0.0649    0.2519   -0.2145   -0.0848    0.1671
    66 O19    2py        0.0105    0.0060    0.0061    0.0111   -0.0233   -0.0272   -0.0717    0.3821    0.2190    0.1290
    67 O19    2pz        0.0507    0.0307    0.1025    0.0973   -0.1171   -0.0596   -0.4229   -0.1963   -0.1048    0.0692
    68 H20    1s        -0.0265    0.0013    0.0271    0.0132   -0.0381   -0.0210   -0.0236    0.1426    0.1315    0.2089
 
 
      Orbital                51        52        53        54        55        56        57        58        59        60
      Energy            -0.0500   -0.0180   -0.0085    0.0047    0.0202    0.0488    0.0639    0.0843    0.0968    0.1235
 
     1 C1     1s         0.0481   -0.0135   -0.0045    0.0158    0.0148    0.0322    0.0326    0.0806   -0.0504   -0.0710
     2 C1     2s         0.4372   -0.1760   -0.0578    0.1202    0.1568    0.2614    0.3091    0.7796   -0.4788   -0.5840
     3 C1     2px       -0.0775    0.1156    0.0474    0.0119    0.1294   -0.1002   -0.2871   -0.0602   -0.1170    0.3451
     4 C1     2py       -0.2110    0.0493   -0.0232    0.1860   -0.0993   -0.1199   -0.3100    0.1399    0.2096   -0.1836
     5 C1     2pz        0.0985   -0.0914   -0.0054   -0.1028    0.0320    0.1368    0.2644   -0.0838   -0.1754    0.2197
     6 C2     1s        -0.0099   -0.0010   -0.0088    0.0173   -0.0144    0.0373    0.0220   -0.0759    0.0730   -0.0678
     7 C2     2s        -0.1300   -0.0126   -0.0238    0.1444   -0.1458    0.3562    0.1550   -0.7350    0.6714   -0.5601
     8 C2     2px        0.1283   -0.0339    0.0406    0.0523    0.1596    0.2892    0.0347   -0.0622   -0.0150   -0.3802
     9 C2     2py       -0.0247    0.0337   -0.0405    0.1457   -0.0297   -0.2188   -0.2514    0.2668    0.1832   -0.2730
    10 C2     2pz        0.0462   -0.0029    0.0088   -0.1594    0.0047    0.1045    0.1858   -0.1841   -0.1531    0.1299
    11 C3     1s        -0.0047    0.0238   -0.0633    0.0455    0.0208   -0.0909   -0.0315    0.0777   -0.0131    0.0238
    12 C3     2s        -0.0209    0.2431   -0.6526    0.3675    0.1908   -0.7543   -0.2772    0.6681   -0.1388    0.2214
    13 C3     2px        0.0433    0.0435   -0.1584    0.2668    0.2754    0.3136    0.0646   -0.2217    0.0440   -0.0482
    14 C3     2py       -0.0013   -0.1058    0.3320    0.2975    0.1258    0.1925   -0.2985    0.2961   -0.0315    0.0470
    15 C3     2pz        0.0361   -0.0019   -0.0873    0.1536    0.1372    0.2340    0.0610   -0.1932    0.0718   -0.1068
    16 O4     1s        -0.0064   -0.0173   -0.0118    0.0130   -0.0164    0.0087    0.0125    0.0053   -0.0103    0.0023
    17 O4     2s        -0.0034   -0.1391   -0.0968    0.1111   -0.1403    0.0712    0.1061    0.0448   -0.0837    0.0150
    18 O4     2px       -0.1724    0.2824    0.1552   -0.2324    0.4421   -0.0142   -0.0276    0.0495   -0.0078   -0.2402
    19 O4     2py       -0.0658    0.1683    0.0879   -0.1248    0.2543   -0.0146   -0.0384    0.0135   -0.0415   -0.1593
    20 O4     2pz       -0.1754    0.1859    0.0982   -0.1501    0.2503    0.0128    0.0592    0.0763    0.0764   -0.0979
    21 C5     1s        -0.0115   -0.0280    0.0842   -0.0217   -0.0366   -0.0916    0.0441   -0.0055   -0.0023   -0.0214
    22 C5     2s        -0.0986   -0.2713    0.7992   -0.1636   -0.2976   -0.7230    0.3868   -0.0854   -0.0134   -0.1852
    23 C5     2px       -0.0012    0.0126   -0.0168    0.4056    0.2321   -0.3384   -0.0052    0.1949   -0.0486   -0.0917
    24 C5     2py        0.0154   -0.0542    0.1533    0.0662   -0.0076   -0.0102    0.1349   -0.1042   -0.0126    0.0346
    25 C5     2pz       -0.0049    0.0199   -0.0532    0.2040    0.1402   -0.2057   -0.0285    0.1471   -0.0411   -0.0348
    26 H6     1s         0.1179   -0.0192   -0.0144   -0.3497    0.0290   -0.1608    0.3043    0.1481   -0.6088    0.7076
    27 H7     1s         0.0220    0.0229   -0.0053   -0.2913   -0.1570    0.5349   -0.5332    0.3645   -0.0410    0.1421
    28 H8     1s         0.4469    0.5976    0.1600    0.1999   -0.3325    0.1284    0.1955    0.0089   -0.4272   -0.2850
    29 H9     1s         0.0013    0.1159    0.1059   -0.2788    0.0921    0.0132    0.0399   -0.6998   -0.0747    0.6881
    30 C10    1s         0.0037    0.0641    0.0154    0.0478   -0.0526   -0.0404   -0.0903   -0.0383    0.0408    0.0209
    31 C10    2s        -0.0016    0.6679    0.1685    0.4151   -0.4694   -0.3341   -0.7282   -0.3293    0.3729    0.2110
    32 C10    2px       -0.0651    0.0291    0.0544   -0.1224    0.2903   -0.1709   -0.3257   -0.1591    0.0757   -0.0029
    33 C10    2py       -0.1832   -0.0489   -0.0190   -0.0731    0.1403   -0.1624   -0.2749   -0.1574    0.1519    0.1028
    34 C10    2pz        0.3681    0.3875    0.2117   -0.1598    0.2299   -0.0014   -0.0535   -0.0967   -0.3217   -0.0616
    35 C11    1s         0.0366   -0.0593   -0.0070   -0.0374    0.0646   -0.0307   -0.0737   -0.0521   -0.0585   -0.0415
    36 C11    2s         0.4054   -0.6281   -0.0933   -0.3351    0.5559   -0.2442   -0.5846   -0.4216   -0.5081   -0.3555
    37 C11    2px       -0.2702    0.0814    0.0617   -0.1841    0.2725    0.1279    0.2822    0.1702   -0.0240    0.1236
    38 C11    2py       -0.3599    0.0481    0.0105   -0.1031    0.1816    0.1107    0.1945    0.0945   -0.1401    0.0325
    39 C11    2pz        0.4122    0.0023    0.0503   -0.0855    0.0963   -0.0312    0.0758    0.1291    0.2938    0.0926
    40 H12    1s         0.5988   -0.1935   -0.0136   -0.1986    0.2828   -0.0684    0.1922    0.2389    0.7673    0.2679
    41 H13    1s         0.0882    0.5376    0.1962   -0.0016   -0.0195    0.1275    0.4317    0.4051    0.5278    0.2828
    42 H14    1s         0.0255    0.2305   -0.6713   -0.2762   -0.0257    0.4887   -0.3236    0.0579    0.0655    0.0781
    43 C15    1s        -0.1137    0.0523    0.0155   -0.0070    0.0222    0.0140    0.0069    0.0018   -0.0411   -0.0213
    44 C15    2s        -1.0671    0.5399    0.1659   -0.0628    0.1948    0.1265    0.0688    0.0293   -0.3321   -0.1822
    45 C15    2px        0.0283    0.1360    0.1046   -0.2277    0.3793   -0.0479    0.0940    0.1716    0.5117    0.0794
    46 C15    2py       -0.0706    0.0716    0.0176   -0.0611    0.0997    0.0308    0.2052    0.1811    0.3960    0.1822
    47 C15    2pz        0.2757    0.1061    0.1568   -0.3018    0.5086   -0.1856   -0.3400   -0.1303    0.0052   -0.3252
    48 C16    1s        -0.0011    0.0030   -0.0109   -0.0384   -0.0287   -0.0096    0.0215   -0.0206    0.0098   -0.0171
    49 C16    2s        -0.0151    0.0455   -0.1513   -0.3645   -0.2565   -0.0868    0.1706   -0.1614    0.0865   -0.1537
    50 C16    2px        0.0114   -0.0483    0.0927    0.4674    0.2915   -0.3117    0.4014   -0.3134   -0.0053    0.0059
    51 C16    2py        0.0831    0.0140   -0.0698    0.3498    0.2804    0.5749   -0.1259   -0.1038   -0.0416    0.3367
    52 C16    2pz       -0.0085   -0.0377    0.0697    0.2306    0.1247   -0.2624    0.2516   -0.1729    0.0121   -0.0536
[...]
        Dihedral C3 C2 C1 C10   -0.6536
        Dihedral C1 C2 C3 C18    0.6298
        Dihedral C2 C1 C10 C17   0.6242
      ---------------------------------
 
      Mode      5
        Frequency:          170.51 cm-1
      ---------------------------------
        Dihedral C2 C3 C18 H20  -1.0000
        Dihedral C1 C10 C17 O4   0.9357
        Dihedral C2 C3 C18 O19  -0.8593
        Dihedral C1 C10 C11 C15 -0.8532
        Dihedral C2 C3 C5 C16    0.7801
        LAngle(2) H8 C17 C10     0.7249
        Dihedral C1 C2 C3 C18    0.6954
        Dihedral C1 C10 C11 H13 -0.6458
        Dihedral H6 C2 C3 C18    0.6188
        Angle C2 C3 C5          -0.6097
        Dihedral C2 C3 C5 H14    0.5930
        Angle C1 C10 C11         0.5526
        Dihedral H9 C1 C10 C17  -0.5330
        Dihedral C2 C1 C10 C17  -0.5318
        Dihedral C1 C10 C17 H8   0.5149
      ---------------------------------
 
      Mode      6
        Frequency:          248.66 cm-1
      ---------------------------------
        Dihedral H6 C2 C3 C18    1.0000
        Dihedral C2 C3 C18 O19  -0.9607
        Dihedral H9 C1 C10 C17  -0.9586
        Dihedral C2 C3 C5 C16    0.9045
        Dihedral C1 C2 C3 C18    0.8986
        Dihedral C1 C10 C17 O4   0.8342
        Dihedral C1 C10 C11 C15 -0.8119
        Dihedral C2 C1 C10 C17  -0.7767
        Dihedral C2 C3 C18 H20  -0.6597
        Dihedral C2 C3 C5 H14    0.6549
        Angle C1 C10 C17         0.6437
        Angle C2 C3 C18         -0.6128
        Dihedral C1 C10 C11 H13 -0.5624
        Dihedral C1 C10 C17 H8   0.5021
      ---------------------------------
 
      Mode      7
        Frequency:          270.09 cm-1
      ---------------------------------
        Dihedral C1 C10 C17 O4  -1.0000
        Dihedral C1 C10 C11 C15  0.9230
        Dihedral C2 C1 C10 C17   0.8353
        Dihedral C2 C3 C18 O19  -0.8198
        Angle C2 C3 C5          -0.7840
        Dihedral C3 C2 C1 C10   -0.7777
        Dihedral C2 C3 C5 C16    0.7564
        Angle C1 C10 C11        -0.7341
        Dihedral C1 C2 C3 C18    0.6234
        Dihedral O4 C17 C10 C11 -0.5977
        Dihedral C5 C3 C18 O19  -0.5536
        Dihedral C1 C10 C11 H13  0.5260
        Dihedral C16 C5 C3 C18   0.5135
      ---------------------------------
 
      Mode      8
        Frequency:          398.82 cm-1
      ---------------------------------
        Dihedral C3 C2 C1 C10    1.0000
        Dihedral C1 C2 C3 C5    -0.7304
        Dihedral C2 C1 C10 C11  -0.7233
        Dihedral C2 C1 C10 C17  -0.6153
      ---------------------------------
 
      Mode      9
        Frequency:          436.06 cm-1
      ---------------------------------
        Dihedral C3 C18 O19 C16  1.0000
        Dihedral C5 C16 O19 C18 -0.9403
        Dihedral C16 O19 C18 H20 0.9222
        Dihedral H7 C16 O19 C18 -0.8257
        Dihedral C3 C5 C16 O19   0.6489
        LAngle(2) H8 C17 C10     0.5504
        Dihedral C5 C3 C18 H20  -0.5056
      ---------------------------------
 
      Mode     10
        Frequency:          449.01 cm-1
      ---------------------------------
        Dihedral C5 C3 C18 H20  -1.0000
        Dihedral C2 C3 C18 H20  -0.8803
        Dihedral C16 O19 C18 H20 0.7154
        Angle C3 C18 H20         0.6836
        Dihedral C11 C15 O4 C17  0.6138
        Outofp   H20 C3 O19 C18  0.6025
        Dihedral C10 C17 O4 C15 -0.5621
        LAngle(2) H8 C17 C10    -0.5112
      ---------------------------------
 
      Mode     11
        Frequency:          451.14 cm-1
      ---------------------------------
        LAngle(2) H8 C17 C10     1.0000
        Dihedral H8 C17 C10 C11  0.7104
        Dihedral C16 C5 C3 C18   0.6960
        Dihedral C2 C1 C10 C11  -0.6800
        Dihedral C3 C5 C16 O19  -0.6755
        Dihedral H6 C2 C3 C18   -0.6753
        Dihedral C1 C2 C3 C18   -0.6515
        Dihedral C5 C3 C18 O19  -0.6254
        Dihedral O4 C17 C10 C11  0.6247
        Dihedral C2 C3 C18 H20   0.5997
        Dihedral C15 C11 C10 C17-0.5793
        Dihedral C3 C5 C16 H7   -0.5785
        Dihedral H9 C1 C10 C17   0.5663
        Dihedral H14 C5 C3 C18   0.5436
        Dihedral C10 C11 C15 H12 0.5355
      ---------------------------------
 
      Mode     12
        Frequency:          464.96 cm-1
      ---------------------------------
        Dihedral C5 C3 C18 H20  -1.0000
        Dihedral C16 O19 C18 H20 0.8993
        Dihedral C2 C3 C18 H20  -0.8446
        LAngle(2) H8 C17 C10    -0.8120
        Angle C3 C18 H20         0.5843
        Outofp   H20 C3 O19 C18  0.5235
      ---------------------------------
 
      Mode     13
        Frequency:          483.92 cm-1
      ---------------------------------
        LAngle(2) H8 C17 C10     1.0000
      ---------------------------------
 
      Mode     14
        Frequency:          509.03 cm-1
      ---------------------------------
        Dihedral C2 C1 C10 C17  -1.0000
        Dihedral C3 C2 C1 C10    0.8905
        Dihedral C1 C2 C3 C18   -0.8321
        Dihedral C2 C3 C18 H20   0.6820
        Dihedral O4 C17 C10 C11 -0.5541
        Dihedral H9 C1 C10 C11   0.5494
      ---------------------------------
 
      Mode     15
        Frequency:          530.56 cm-1
      ---------------------------------
        Dihedral C2 C3 C18 H20   1.0000
        Dihedral C1 C2 C3 C18   -0.6077
        Angle C3 C18 H20        -0.5170
      ---------------------------------
 
      Mode     16
        Frequency:          578.30 cm-1
      ---------------------------------
        LAngle(2) H8 C17 C10    -1.0000
        Dihedral C2 C1 C10 C17   0.8201
        Dihedral C5 C3 C2 H6    -0.7900
        Bond C3 C2               0.6643
        Dihedral H9 C1 C10 C17   0.6301
        Dihedral H14 C5 C3 C18  -0.6050
        Angle C2 C1 C10         -0.5577
        Angle C5 C3 C18         -0.5517
        Dihedral C1 C10 C17 H8  -0.5357
        Bond C10 C1              0.5326
        Dihedral H13 C11 C10 C17-0.5175
        Dihedral C1 C2 C3 C18    0.5107
        Dihedral C1 C10 C17 O4  -0.5106
      ---------------------------------
 
      Mode     17
        Frequency:          641.76 cm-1
      ---------------------------------
        Dihedral C3 C2 C1 H9    -1.0000
        Dihedral H9 C1 C10 C11   0.9877
        Dihedral H6 C2 C1 C10    0.9770
        Dihedral C5 C3 C2 H6    -0.8888
        Dihedral H9 C1 C10 C17   0.7412
        Dihedral H6 C2 C3 C18   -0.7270
        Outofp   H9 C2 C10 C1    0.7147
        Outofp   H6 C1 C3 C2    -0.6593
      ---------------------------------
 
      Mode     18
        Frequency:          694.53 cm-1
      ---------------------------------
        Dihedral H14 C5 C3 C18   1.0000
        Bond C17 O4              0.9530
        Dihedral H14 C5 C16 O19 -0.9296
        LAngle(2) H8 C17 C10    -0.9032
        Dihedral C2 C3 C5 H14    0.8756
        Dihedral H13 C11 C10 C17-0.6737
        Dihedral O4 C15 C11 H13  0.6427
        Dihedral H7 C16 C5 H14  -0.6280
        Bond C15 O4             -0.6247
        Outofp   H14 C3 C16 C5  -0.6173
        Bond C17 C10            -0.6009
        Dihedral C1 C10 C11 H13 -0.5925
        LAngle(1) H8 C17 C10     0.5667
      ---------------------------------
 
      Mode     19
        Frequency:          701.60 cm-1
      ---------------------------------
        Dihedral C10 C11 C15 H12-1.0000
        Dihedral H12 C15 O4 C17  0.9744
        Outofp   H12 O4 C11 C15 -0.6889
        Dihedral H12 C15 C11 H13-0.5252
        Dihedral O4 C15 C11 H13  0.5109
        Dihedral C1 C10 C11 H13 -0.5025
      ---------------------------------
 
      Mode     20
        Frequency:          705.69 cm-1
      ---------------------------------
        Dihedral C2 C3 C5 H14    1.0000
        Dihedral H14 C5 C3 C18   0.9206
        Dihedral H14 C5 C16 O19 -0.8728
        Outofp   H14 C3 C16 C5  -0.5949
        Dihedral H7 C16 C5 H14  -0.5786
      ---------------------------------
 
      Mode     21
        Frequency:          722.40 cm-1
      ---------------------------------
        Dihedral H12 C15 C11 H13 1.0000
        Dihedral C1 C10 C11 H13 -0.8817
        Dihedral H13 C11 C10 C17-0.8079
        Dihedral O4 C15 C11 H13  0.7108
        Outofp   H13 C10 C15 C11 0.5735
      ---------------------------------
 
      Mode     22
        Frequency:          759.62 cm-1
      ---------------------------------
        Dihedral C1 C10 C11 H13  1.0000
        Angle C16 O19 C18        0.6789
        Dihedral H13 C11 C10 C17 0.6368
        Dihedral O4 C15 C11 H13 -0.6103
        Dihedral C2 C3 C18 H20   0.5811
        Dihedral C5 C3 C2 H6     0.5500
        Angle C5 C16 H7          0.5205
        Dihedral H12 C15 C11 H13-0.5200
        Dihedral H9 C1 C10 C11  -0.5190
        Dihedral C2 C3 C5 H14   -0.5101
      ---------------------------------
 
      Mode     23
        Frequency:          782.31 cm-1
      ---------------------------------
        Dihedral H6 C2 C1 H9    -1.0000
        Dihedral H9 C1 C10 C11   0.7921
        Dihedral C3 C2 C1 H9    -0.6586
        Outofp   H9 C2 C10 C1    0.6071
      ---------------------------------
 
      Mode     24
        Frequency:          790.35 cm-1
      ---------------------------------
        Dihedral H6 C2 C1 H9    -1.0000
        Dihedral C5 C3 C2 H6     0.5335
      ---------------------------------
 
      Mode     25
        Frequency:          820.37 cm-1
      ---------------------------------
        Angle C11 C15 H12       -1.0000
        Angle C15 O4 C17        -0.9237
        Bond C17 O4              0.8539
        Angle O4 C15 C11         0.8433
        Angle C10 C11 H13        0.5544
        LAngle(1) H8 C17 C10    -0.5311
      ---------------------------------
 
      Mode     26
        Frequency:          860.21 cm-1
      ---------------------------------
        Dihedral H7 C16 C5 H14   1.0000
        Dihedral H7 C16 O19 C18 -0.9721
        Dihedral C3 C5 C16 H7    0.9384
        Outofp   H7 C5 O19 C16  -0.7731
      ---------------------------------
 
      Mode     27
        Frequency:          884.18 cm-1
      ---------------------------------
        Angle H7 C16 O19         1.0000
        Angle C3 C18 H20        -0.8838
        Bond C18 C3             -0.7491
        Angle C5 C16 H7         -0.6561
      ---------------------------------
 
      Mode     28
        Frequency:          898.15 cm-1
      ---------------------------------
        LAngle(1) H8 C17 C10     1.0000
        Angle C10 C11 H13        0.7238
        Angle O4 C17 H8         -0.6572
        Bond C17 C10             0.5890
      ---------------------------------
 
      Mode     29
        Frequency:          918.23 cm-1
      ---------------------------------
        Angle O4 C15 H12        -1.0000
        Angle C11 C15 H12        0.6972
        Bond C15 C11             0.6775
      ---------------------------------
 
      Mode     30
        Frequency:          921.24 cm-1
      ---------------------------------
        Angle H7 C16 O19         1.0000
        Angle C3 C5 H14          0.8644
        Angle C5 C16 H7         -0.8428
        Angle H14 C5 C16        -0.8082
        Bond C16 C5             -0.7247
        Angle C3 C18 H20         0.5591
      ---------------------------------
 
      Mode     31
        Frequency:          982.73 cm-1
      ---------------------------------
        Bond O19 C18            -1.0000
        Angle O19 C18 H20       -0.6250
        Angle H14 C5 C16        -0.5232
        Angle H7 C16 O19        -0.5114
        Angle C3 C18 O19         0.5084
      ---------------------------------
 
      Mode     32
        Frequency:         1010.11 cm-1
      ---------------------------------
        Angle C10 C11 H13        1.0000
        Angle C3 C5 H14          0.8669
        Angle O4 C15 H12        -0.8185
        Angle H13 C11 C15       -0.8087
        Angle H14 C5 C16        -0.7222
        Angle C11 C15 H12        0.5607
      ---------------------------------
 
      Mode     33
        Frequency:         1018.54 cm-1
      ---------------------------------
        Angle O4 C17 H8          1.0000
        Angle C3 C5 H14          0.9512
        Angle O19 C18 H20        0.8745
        Angle H14 C5 C16        -0.8048
        Angle C3 C18 H20        -0.7571
        Angle C1 C2 H6           0.7458
        LAngle(1) H8 C17 C10    -0.6338
        Angle H7 C16 O19        -0.6176
        Angle C3 C2 H6          -0.5464
      ---------------------------------
 
      Mode     34
        Frequency:         1044.95 cm-1
      ---------------------------------
        Angle O4 C17 H8         -1.0000
        LAngle(1) H8 C17 C10     0.8516
        Angle C10 C11 H13       -0.7146
        Angle H13 C11 C15        0.6119
        Angle C3 C5 H14          0.5731
        Angle O4 C15 H12         0.5438
        Angle H14 C5 C16        -0.5321
      ---------------------------------
 
      Mode     35
        Frequency:         1076.13 cm-1
      ---------------------------------
        Angle C2 C1 H9          -1.0000
        Angle H9 C1 C10          0.9418
        Angle O4 C17 H8          0.7660
        Bond O19 C18             0.6733
        Angle O19 C18 H20       -0.6403
        LAngle(1) H8 C17 C10    -0.6046
        Angle C3 C18 H20         0.5830
        Angle H14 C5 C16        -0.5190
        Angle C3 C5 H14          0.5054
      ---------------------------------
 
      Mode     36
        Frequency:         1115.90 cm-1
      ---------------------------------
        Angle O19 C18 H20       -1.0000
        Angle C1 C2 H6           0.7022
        Angle C3 C18 H20         0.6684
        Angle C3 C2 H6          -0.5976
      ---------------------------------
 
      Mode     37
        Frequency:         1160.35 cm-1
      ---------------------------------
        Angle C10 C11 H13       -1.0000
        Angle H13 C11 C15        0.9513
        Bond C15 C11            -0.8443
        Bond C15 O4             -0.6776
        Angle C3 C2 H6          -0.6344
        Bond C5 C3              -0.6178
        Angle C1 C2 H6           0.5858
        Angle O4 C15 H12        -0.5476
      ---------------------------------
 
      Mode     38
        Frequency:         1171.20 cm-1
      ---------------------------------
        Bond C5 C3               1.0000
        Angle C10 C11 H13       -0.8496
        Angle C2 C1 H9          -0.8215
        Bond O19 C18            -0.8152
        Bond C15 C11            -0.7668
        Angle H13 C11 C15        0.7561
        Angle C3 C2 H6           0.6739
        Bond O19 C16             0.6282
        Angle H7 C16 O19         0.6223
        Angle C2 C3 C5          -0.6022
        Angle H9 C1 C10          0.5861
        Bond C18 C3             -0.5554
        Angle O4 C15 H12        -0.5175
        Angle C2 C3 C18          0.5037
      ---------------------------------
 
      Mode     39
        Frequency:         1241.24 cm-1
      ---------------------------------
        Bond C16 C5             -1.0000
        Angle H14 C5 C16         0.8684
        Angle H7 C16 O19        -0.7782
        Bond C18 C3             -0.7562
        Angle C3 C5 H14         -0.7538
        Bond C5 C3               0.7059
        Bond O19 C18             0.6507
        Angle O19 C18 H20       -0.6270
        Angle C5 C16 O19         0.5647
      ---------------------------------
 
      Mode     40
        Frequency:         1249.86 cm-1
      ---------------------------------
        Angle C2 C1 H9           1.0000
        Angle H9 C1 C10         -0.9513
        Bond C17 C10             0.6389
        Angle O4 C15 H12        -0.6040
        Angle C11 C15 H12        0.5345
      ---------------------------------
 
      Mode     41
        Frequency:         1293.61 cm-1
      ---------------------------------
        Angle C1 C2 H6           1.0000
        Angle C3 C2 H6          -0.7260
        Angle C2 C1 H9          -0.6923
      ---------------------------------
 
      Mode     42
        Frequency:         1344.30 cm-1
      ---------------------------------
        Bond O19 C16            -1.0000
        Angle H7 C16 O19         0.6967
        Angle C5 C16 H7         -0.6869
        Bond C16 C5              0.5036
      ---------------------------------
 
      Mode     43
        Frequency:         1401.16 cm-1
      ---------------------------------
        Bond C15 O4             -1.0000
        Bond C17 C10             0.9628
        Angle O4 C17 H8          0.9006
        Angle O4 C15 H12         0.8971
        Bond C15 C11             0.8909
        Bond C11 C10            -0.6430
        LAngle(1) H8 C17 C10    -0.6301
        Angle C11 C15 H12       -0.6109
      ---------------------------------
 
      Mode     44
        Frequency:         1471.70 cm-1
      ---------------------------------
        Bond C2 C1               1.0000
        Bond C11 C10            -0.9381
        Bond C18 C3             -0.7720
        Angle C3 C5 H14          0.7543
        Bond C5 C3              -0.7076
        Angle C10 C11 H13        0.6677
        Angle C2 C1 H9          -0.6074
        Angle C3 C2 H6           0.5994
        Angle H9 C1 C10          0.5888
        Angle H13 C11 C15       -0.5576
        Angle C3 C18 H20         0.5459
        Angle H14 C5 C16        -0.5424
        Bond C3 C2               0.5025
      ---------------------------------
 
      Mode     45
        Frequency:         1567.90 cm-1
      ---------------------------------
        Bond C3 C2               1.0000
        Bond C11 C10             0.9003
        Bond C10 C1             -0.8476
        Bond C5 C3              -0.6423
        Bond C18 C3             -0.5545
        Angle C10 C11 H13       -0.5488
        Angle C1 C2 H6           0.5110
      ---------------------------------
 
      Mode     46
        Frequency:         1681.99 cm-1
      ---------------------------------
        Bond C2 C1               1.0000
        Bond C10 C1             -0.7980
        Bond C3 C2              -0.6844
      ---------------------------------
 
      Mode     47
        Frequency:         2866.65 cm-1
      ---------------------------------
        Bond C16 H7              1.0000
      ---------------------------------
 
      Mode     48
        Frequency:         2927.73 cm-1
      ---------------------------------
        Bond C15 H12            -1.0000
      ---------------------------------
 
      Mode     49
        Frequency:         3077.26 cm-1
      ---------------------------------
        Bond C17 H8              1.0000
      ---------------------------------
 
      Mode     50
        Frequency:         3091.27 cm-1
      ---------------------------------
        Bond H14 C5              1.0000
      ---------------------------------
 
      Mode     51
        Frequency:         3113.02 cm-1
      ---------------------------------
        Bond H20 C18            -1.0000
      ---------------------------------
 
      Mode     52
        Frequency:         3117.90 cm-1
      ---------------------------------
        Bond H13 C11            -1.0000
      ---------------------------------
 
      Mode     53
        Frequency:         3141.15 cm-1
      ---------------------------------
        Bond H9 C1              -1.0000
        Bond H6 C2               0.8827
      ---------------------------------
 
      Mode     54
        Frequency:         3161.82 cm-1
      ---------------------------------
        Bond H6 C2              -1.0000
        Bond H9 C1              -0.8695
      ---------------------------------
--
 
--- Stop Module: slapaf at Fri Jul  7 09:57:44 2023 /rc=_RC_ALL_IS_WELL_ ---
*** files: sys1_cas.freq.molden sys1_cas.slapaf.h5 xmldump
    saved to directory /rds/general/user/cc522/home/sys1_cas_July_6
--- Module slapaf spent 1 second ---

>>> END DO

>>> EXPORT MOLCAS_TRAP = UNKNOWN_VARIABLE

>>> EXPORT MOLCAS_MAXITER = UNKNOWN_VARIABLE

.##################.
.# Happy landing! #.
.##################.

    Timing: Wall=35999.85 User=34689.62 System=490.61
