#!/bin/bash
#PBS -l select=1:ncpus=1:mem=5gb
#PBS -l walltime=10:00:00
#PBS -N sys1_cas_fre

module load tools/prod
module load OpenMolcas/22.10-intel-2022a
export MOLCAS_MEM=5000

cd $HOME/sys1_cas_June_30_1
pymolcas system1_casfre.input > system1_casfre.log
